Li    ONCVPSP-4.0.1  r_core=   1.40189   1.10355
3.0000      3.0000      240514    zatom,zion,pspd
8      11   1     4   400     0    pspcod,pspxc,lmax,lloc,mmax,r2well
3.99000000  0.00000000  0.00000000    rchrg fchrg qchrg
2     2     0     0     0    nproj
1     1           extension_switch
0                        -4.9157716397013E+00 -1.4840825123632E+00
1  0.0000000000000E+00  1.6909363909079E-09 -4.8163088517406E-09
2  1.0000000000000E-02  9.0815300853662E-02 -3.4881208460988E-02
3  2.0000000000000E-02  1.8139361743431E-01 -6.9578678220207E-02
4  3.0000000000000E-02  2.7149812040053E-01 -1.0390775637181E-01
5  4.0000000000000E-02  3.6089230636830E-01 -1.3768201073165E-01
6  5.0000000000000E-02  4.4934020067704E-01 -1.7071246174540E-01
7  6.0000000000000E-02  5.3660660665508E-01 -2.0280695670679E-01
8  7.0000000000000E-02  6.2245741484043E-01 -2.3376972789986E-01
9  8.0000000000000E-02  7.0665998392134E-01 -2.6340117146273E-01
10  9.0000000000000E-02  7.8898360312272E-01 -2.9149787796405E-01
11  1.0000000000000E-01  8.6920004342542E-01 -3.1785293902124E-01
12  1.1000000000000E-01  9.4708420242076E-01 -3.4225654692890E-01
13  1.2000000000000E-01  1.0224148448334E+00 -3.6449689637777E-01
14  1.3000000000000E-01  1.0949754378552E+00 -3.8436138911481E-01
15  1.4000000000000E-01  1.1645550774931E+00 -4.0163813401731E-01
16  1.5000000000000E-01  1.2309494992074E+00 -4.1611772672667E-01
17  1.6000000000000E-01  1.2939621632843E+00 -4.2759528490878E-01
18  1.7000000000000E-01  1.3534054027054E+00 -4.3587270757045E-01
19  1.8000000000000E-01  1.4091016188157E+00 -4.4076111985117E-01
20  1.9000000000000E-01  1.4608845079178E+00 -4.4208345849551E-01
21  2.0000000000000E-01  1.5086003000758E+00 -4.3967714794996E-01
22  2.1000000000000E-01  1.5521089899550E+00 -4.3339681285028E-01
23  2.2000000000000E-01  1.5912855384879E+00 -4.2311696968283E-01
24  2.3000000000000E-01  1.6260210235749E+00 -4.0873463869675E-01
25  2.4000000000000E-01  1.6562237179148E+00 -3.9017181677016E-01
26  2.5000000000000E-01  1.6818200724338E+00 -3.6737775291574E-01
27  2.6000000000000E-01  1.7027555846322E+00 -3.4033097044437E-01
28  2.7000000000000E-01  1.7189955324894E+00 -3.0904098345316E-01
29  2.8000000000000E-01  1.7305255563337E+00 -2.7354966020063E-01
30  2.9000000000000E-01  1.7373520732668E+00 -2.3393219198028E-01
31  3.0000000000000E-01  1.7395025112848E+00 -1.9029763318548E-01
32  3.1000000000000E-01  1.7370253531119E+00 -1.4278898622421E-01
33  3.2000000000000E-01  1.7299899829028E+00 -9.1582813627528E-02
34  3.3000000000000E-01  1.7184863323075E+00 -3.6888368914750E-02
35  3.4000000000000E-01  1.7026243258575E+00  2.1053752667056E-02
36  3.5000000000000E-01  1.6825331291624E+00  8.1973432727514E-02
37  3.6000000000000E-01  1.6583602069086E+00  1.4557329723968E-01
38  3.7000000000000E-01  1.6302702010728E+00  2.1153140326224E-01
39  3.8000000000000E-01  1.5984436430124E+00  2.7950430636811E-01
40  3.9000000000000E-01  1.5630755161128E+00  3.4913046216901E-01
41  4.0000000000000E-01  1.5243736883846E+00  4.2003390810910E-01
42  4.1000000000000E-01  1.4825572367635E+00  4.9182816553547E-01
43  4.2000000000000E-01  1.4378546868032E+00  5.6412029708449E-01
44  4.3000000000000E-01  1.3905021929407E+00  6.3651505076892E-01
45  4.4000000000000E-01  1.3407416855093E+00  7.0861901990439E-01
46  4.5000000000000E-01  1.2888190111550E+00  7.8004474723512E-01
47  4.6000000000000E-01  1.2349820932659E+00  8.5041470233865E-01
48  4.7000000000000E-01  1.1794791384540E+00  9.1936506360419E-01
49  4.8000000000000E-01  1.1225569140330E+00  9.8654923975266E-01
50  4.9000000000000E-01  1.0644591198476E+00  1.0516410709320E+00
51  5.0000000000000E-01  1.0054248757576E+00  1.1143376557776E+00
52  5.1000000000000E-01  9.4568734359881E-01  1.1743617583492E+00
53  5.2000000000000E-01  8.8547249959801E-01  1.2314637573827E+00
54  5.3000000000000E-01  8.2499807005640E-01  1.2854231096592E+00
55  5.4000000000000E-01  7.6447263971412E-01  1.3360493092818E+00
56  5.5000000000000E-01  7.0409493863042E-01  1.3831823350676E+00
57  5.6000000000000E-01  6.4405330974369E-01  1.4266925888695E+00
58  5.7000000000000E-01  5.8452535558789E-01  1.4664803382164E+00
59  5.8000000000000E-01  5.2567775901761E-01  1.5024746869721E+00
60  5.9000000000000E-01  4.6766626931221E-01  1.5346321075286E+00
61  6.0000000000000E-01  4.1063584176564E-01  1.5629345771590E+00
62  6.1000000000000E-01  3.5472091589427E-01  1.5873873693469E+00
63  6.2000000000000E-01  3.0004581477538E-01  1.6080165580057E+00
64  6.3000000000000E-01  2.4672524582265E-01  1.6248662983288E+00
65  6.4000000000000E-01  1.9486488156030E-01  1.6379959524495E+00
66  6.5000000000000E-01  1.4456199771375E-01  1.6474771310114E+00
67  6.6000000000000E-01  9.5906145220957E-02  1.6533907231010E+00
68  6.7000000000000E-01  4.8979832599793E-02  1.6558239867198E+00
69  6.8000000000000E-01  3.8591954902577E-03  1.6548677700740E+00
70  6.9000000000000E-01 -3.9385368884266E-02  1.6506139304686E+00
71  7.0000000000000E-01 -8.0688623142324E-02  1.6431530125706E+00
72  7.1000000000000E-01 -1.1998998591987E-01  1.6325722413580E+00
73  7.2000000000000E-01 -1.5723311926705E-01  1.6189538773258E+00
74  7.3000000000000E-01 -1.9236562094808E-01  1.6023739726457E+00
75  7.4000000000000E-01 -2.2533883220118E-01  1.5829015571541E+00
76  7.5000000000000E-01 -2.5610776812512E-01  1.5605982724916E+00
77  7.6000000000000E-01 -2.8463117427984E-01  1.5355184616621E+00
78  7.7000000000000E-01 -3.1087170940090E-01  1.5077097099658E+00
79  7.8000000000000E-01 -3.3479625041627E-01  1.4772138219352E+00
80  7.9000000000000E-01 -3.5637631230421E-01  1.4440682078284E+00
81  8.0000000000000E-01 -3.7558857182731E-01  1.4083076426484E+00
82  8.1000000000000E-01 -3.9241548090257E-01  1.3699663508178E+00
83  8.2000000000000E-01 -4.0684595239900E-01  1.3290803607588E+00
84  8.3000000000000E-01 -4.1887609856314E-01  1.2856900659327E+00
85  8.4000000000000E-01 -4.2851000012556E-01  1.2398429225591E+00
86  8.5000000000000E-01 -4.3576048248988E-01  1.1915962094234E+00
87  8.6000000000000E-01 -4.4064987429731E-01  1.1410197720220E+00
88  8.7000000000000E-01 -4.4321072312513E-01  1.0881986718766E+00
89  8.8000000000000E-01 -4.4348644313858E-01  1.0332356622305E+00
90  8.9000000000000E-01 -4.4153187017949E-01  9.7625341353562E-01
91  9.0000000000000E-01 -4.3741370103613E-01  9.1739641612904E-01
92  9.1000000000000E-01 -4.3121079547842E-01  8.5683249322022E-01
93  9.2000000000000E-01 -4.2301432202873E-01  7.9475386466067E-01
94  9.3000000000000E-01 -4.1292773132770E-01  7.3137771081823E-01
95  9.4000000000000E-01 -4.0106654428951E-01  6.6694619605006E-01
96  9.5000000000000E-01 -3.8755794595773E-01  6.0172592256499E-01
97  9.6000000000000E-01 -3.7254017999369E-01  5.3600679765797E-01
98  9.7000000000000E-01 -3.5616174297329E-01  4.7010031013805E-01
99  9.8000000000000E-01 -3.3858038204450E-01  4.0433722498457E-01
100  9.9000000000000E-01 -3.1996190391623E-01  3.3906471858692E-01
101  1.0000000000000E+00 -3.0047880751179E-01  2.7464299005387E-01
102  1.0100000000000E+00 -2.8030875683359E-01  2.1144139674240E-01
103  1.0200000000000E+00 -2.5963291455674E-01  1.4983417407713E-01
104  1.0300000000000E+00 -2.3863416050933E-01  9.0195810643650E-02
105  1.0400000000000E+00 -2.1749522242021E-01  3.2896159188112E-02
106  1.0500000000000E+00 -1.9639674904947E-01 -2.1704627669529E-02
107  1.0600000000000E+00 -1.7551535799519E-01 -7.3261241702271E-02
108  1.0700000000000E+00 -1.5502169203376E-01 -1.2144834336177E-01
109  1.0800000000000E+00 -1.3507851876442E-01 -1.6596556342087E-01
110  1.0900000000000E+00 -1.1583890855795E-01 -2.0654227865130E-01
111  1.1000000000000E+00 -9.7444524756296E-02 -2.4294206186195E-01
112  1.1100000000000E+00 -8.0024055492544E-02 -2.7496672302267E-01
113  1.1200000000000E+00 -6.3691520488617E-02 -3.0246096627855E-01
114  1.1300000000000E+00 -4.8544391376124E-02 -3.2531785217565E-01
115  1.1400000000000E+00 -3.4662371046451E-02 -3.4348189201964E-01
116  1.1500000000000E+00 -2.2106574260856E-02 -3.5695083587267E-01
117  1.1600000000000E+00 -1.0918980073512E-02 -3.6577666937307E-01
118  1.1700000000000E+00 -1.1221701829686E-03 -3.7006577775620E-01
119  1.1800000000000E+00  7.2806384586971E-03 -3.6997825343768E-01
120  1.1900000000000E+00  1.4305263328550E-02 -3.6572633782991E-01
121  1.2000000000000E+00  1.9985930203271E-02 -3.5757200404668E-01
122  1.2100000000000E+00  2.4374358425719E-02 -3.4582370296530E-01
123  1.2200000000000E+00  2.7538570012863E-02 -3.3083231069223E-01
124  1.2300000000000E+00  2.9561440157658E-02 -3.1298633070778E-01
125  1.2400000000000E+00  3.0539011435139E-02 -2.9270641807486E-01
126  1.2500000000000E+00  3.0578598502609E-02 -2.7043930645083E-01
127  1.2600000000000E+00  2.9796713988209E-02 -2.4665123019993E-01
128  1.2700000000000E+00  2.8316849722981E-02 -2.2182094418981E-01
129  1.2800000000000E+00  2.6267150266608E-02 -1.9643245213228E-01
130  1.2900000000000E+00  2.3778017770731E-02 -1.7096756049368E-01
131  1.3000000000000E+00  2.0979688692557E-02 -1.4589837934548E-01
132  1.3100000000000E+00  1.7999822850850E-02 -1.2167989129390E-01
133  1.3200000000000E+00  1.4961150809993E-02 -9.8742726683940E-02
134  1.3300000000000E+00  1.1979200789335E-02 -7.7486205738482E-02
135  1.3400000000000E+00  9.1610658529362E-03 -5.8274645421098E-02
136  1.3500000000000E+00  6.6027272827261E-03 -4.1429233566930E-02
137  1.3600000000000E+00  4.3849684622571E-03 -2.7215369747541E-02
138  1.3700000000000E+00  2.5742643533414E-03 -1.5845525474649E-02
139  1.3800000000000E+00  1.2218140718303E-03 -7.4774862130271E-03
140  1.3900000000000E+00  3.5830393869886E-04 -2.1855407733888E-03
141  1.4000000000000E+00  1.6484493369759E-05 -1.0030353699475E-04
142  1.4100000000000E+00 -6.3519131387997E-07  3.8699100733888E-06
143  1.4200000000000E+00 -2.3578604455351E-07  1.4389079100499E-06
144  1.43 -0.  0.
145  1.44  0.  0.
146  1.45  0.  0.
147  1.46  0.  0.
148  1.47  0.  0.
149  1.48  0.  0.
150  1.49  0.  0.
151  1.50  0.  0.
152  1.51  0.  0.
153  1.52  0.  0.
154  1.53  0.  0.
155  1.54  0.  0.
156  1.55  0.  0.
157  1.56  0.  0.
158  1.57  0.  0.
159  1.58  0.  0.
160  1.59  0.  0.
161  1.60  0.  0.
162  1.61  0.  0.
163  1.62  0.  0.
164  1.63  0.  0.
165  1.64  0.  0.
166  1.65  0.  0.
167  1.66  0.  0.
168  1.67  0.  0.
169  1.68  0.  0.
170  1.69  0.  0.
171  1.70  0.  0.
172  1.71  0.  0.
173  1.72  0.  0.
174  1.73  0.  0.
175  1.74  0.  0.
176  1.75  0.  0.
177  1.76  0.  0.
178  1.77  0.  0.
179  1.78  0.  0.
180  1.79  0.  0.
181  1.80  0.  0.
182  1.81  0.  0.
183  1.82  0.  0.
184  1.83  0.  0.
185  1.84  0.  0.
186  1.85  0.  0.
187  1.86  0.  0.
188  1.87  0.  0.
189  1.88  0.  0.
190  1.89  0.  0.
191  1.90  0.  0.
192  1.91  0.  0.
193  1.92  0.  0.
194  1.93  0.  0.
195  1.94  0.  0.
196  1.95  0.  0.
197  1.96  0.  0.
198  1.97  0.  0.
199  1.98  0.  0.
200  1.99  0.  0.
201  2.00  0.  0.
202  2.01  0.  0.
203  2.02  0.  0.
204  2.03  0.  0.
205  2.04  0.  0.
206  2.05  0.  0.
207  2.06  0.  0.
208  2.07  0.  0.
209  2.08  0.  0.
210  2.09  0.  0.
211  2.10  0.  0.
212  2.11  0.  0.
213  2.12  0.  0.
214  2.13  0.  0.
215  2.14  0.  0.
216  2.15  0.  0.
217  2.16  0.  0.
218  2.17  0.  0.
219  2.18  0.  0.
220  2.19  0.  0.
221  2.20  0.  0.
222  2.21  0.  0.
223  2.22  0.  0.
224  2.23  0.  0.
225  2.24  0.  0.
226  2.25  0.  0.
227  2.26  0.  0.
228  2.27  0.  0.
229  2.28  0.  0.
230  2.29  0.  0.
231  2.30  0.  0.
232  2.31  0.  0.
233  2.32  0.  0.
234  2.33  0.  0.
235  2.34  0.  0.
236  2.35  0.  0.
237  2.36  0.  0.
238  2.37  0.  0.
239  2.38  0.  0.
240  2.39  0.  0.
241  2.40  0.  0.
242  2.41  0.  0.
243  2.42  0.  0.
244  2.43  0.  0.
245  2.44  0.  0.
246  2.45  0.  0.
247  2.46  0.  0.
248  2.47  0.  0.
249  2.48  0.  0.
250  2.49  0.  0.
251  2.50  0.  0.
252  2.51  0.  0.
253  2.52  0.  0.
254  2.53  0.  0.
255  2.54  0.  0.
256  2.55  0.  0.
257  2.56  0.  0.
258  2.57  0.  0.
259  2.58  0.  0.
260  2.59  0.  0.
261  2.60  0.  0.
262  2.61  0.  0.
263  2.62  0.  0.
264  2.63  0.  0.
265  2.64  0.  0.
266  2.65  0.  0.
267  2.66  0.  0.
268  2.67  0.  0.
269  2.68  0.  0.
270  2.69  0.  0.
271  2.70  0.  0.
272  2.71  0.  0.
273  2.72  0.  0.
274  2.73  0.  0.
275  2.74  0.  0.
276  2.75  0.  0.
277  2.76  0.  0.
278  2.77  0.  0.
279  2.78  0.  0.
280  2.79  0.  0.
281  2.80  0.  0.
282  2.81  0.  0.
283  2.82  0.  0.
284  2.83  0.  0.
285  2.84  0.  0.
286  2.85  0.  0.
287  2.86  0.  0.
288  2.87  0.  0.
289  2.88  0.  0.
290  2.89  0.  0.
291  2.90  0.  0.
292  2.91  0.  0.
293  2.92  0.  0.
294  2.93  0.  0.
295  2.94  0.  0.
296  2.95  0.  0.
297  2.96  0.  0.
298  2.97  0.  0.
299  2.98  0.  0.
300  2.99  0.  0.
301  3.00  0.  0.
302  3.01  0.  0.
303  3.02  0.  0.
304  3.03  0.  0.
305  3.04  0.  0.
306  3.05  0.  0.
307  3.06  0.  0.
308  3.07  0.  0.
309  3.08  0.  0.
310  3.09  0.  0.
311  3.10  0.  0.
312  3.11  0.  0.
313  3.12  0.  0.
314  3.13  0.  0.
315  3.14  0.  0.
316  3.15  0.  0.
317  3.16  0.  0.
318  3.17  0.  0.
319  3.18  0.  0.
320  3.19  0.  0.
321  3.20  0.  0.
322  3.21  0.  0.
323  3.22  0.  0.
324  3.23  0.  0.
325  3.24  0.  0.
326  3.25  0.  0.
327  3.26  0.  0.
328  3.27  0.  0.
329  3.28  0.  0.
330  3.29  0.  0.
331  3.30  0.  0.
332  3.31  0.  0.
333  3.32  0.  0.
334  3.33  0.  0.
335  3.34  0.  0.
336  3.35  0.  0.
337  3.36  0.  0.
338  3.37  0.  0.
339  3.38  0.  0.
340  3.39  0.  0.
341  3.40  0.  0.
342  3.41  0.  0.
343  3.42  0.  0.
344  3.43  0.  0.
345  3.44  0.  0.
346  3.45  0.  0.
347  3.46  0.  0.
348  3.47  0.  0.
349  3.48  0.  0.
350  3.49  0.  0.
351  3.50  0.  0.
352  3.51  0.  0.
353  3.52  0.  0.
354  3.53  0.  0.
355  3.54  0.  0.
356  3.55  0.  0.
357  3.56  0.  0.
358  3.57  0.  0.
359  3.58  0.  0.
360  3.59  0.  0.
361  3.60  0.  0.
362  3.61  0.  0.
363  3.62  0.  0.
364  3.63  0.  0.
365  3.64  0.  0.
366  3.65  0.  0.
367  3.66  0.  0.
368  3.67  0.  0.
369  3.68  0.  0.
370  3.69  0.  0.
371  3.70  0.  0.
372  3.71  0.  0.
373  3.72  0.  0.
374  3.73  0.  0.
375  3.74  0.  0.
376  3.75  0.  0.
377  3.76  0.  0.
378  3.77  0.  0.
379  3.78  0.  0.
380  3.79  0.  0.
381  3.80  0.  0.
382  3.81  0.  0.
383  3.82  0.  0.
384  3.83  0.  0.
385  3.84  0.  0.
386  3.85  0.  0.
387  3.86  0.  0.
388  3.87  0.  0.
389  3.88  0.  0.
390  3.89  0.  0.
391  3.90  0.  0.
392  3.91  0.  0.
393  3.92  0.  0.
394  3.93  0.  0.
395  3.94  0.  0.
396  3.95  0.  0.
397  3.96  0.  0.
398  3.97  0.  0.
399  3.98  0.  0.
400  3.99  0.  0.
1                        -2.6637166351561E+00 -6.5480679498842E-01
1  0.0000000000000E+00  5.6417844168655E-07 -6.6256245973007E-07
2  1.0000000000000E-02  9.0963353972768E-03 -7.8899362659532E-03
3  2.0000000000000E-02  3.6096475912764E-02 -3.1228156847399E-02
4  3.0000000000000E-02  8.0144398511505E-02 -6.9032353725623E-02
5  4.0000000000000E-02  1.3984824960656E-01 -1.1970640691694E-01
6  5.0000000000000E-02  2.1333125397763E-01 -1.8110037448888E-01
7  6.0000000000000E-02  2.9830030348556E-01 -2.5059133951130E-01
8  7.0000000000000E-02  3.9212966299858E-01 -3.2518211497962E-01
9  8.0000000000000E-02  4.9195666676765E-01 -4.0161414518512E-01
10  9.0000000000000E-02  5.9478583152909E-01 -4.7649041512768E-01
11  1.0000000000000E-01  6.9759749958134E-01 -5.4640380783852E-01
12  1.1000000000000E-01  7.9745695765349E-01 -6.0806614660521E-01
13  1.2000000000000E-01  8.9161996174951E-01 -6.5843313248970E-01
14  1.3000000000000E-01  9.7763073479884E-01 -6.9482053806985E-01
15  1.4000000000000E-01  1.0534087876443E+00 -7.1500734031906E-01
16  1.5000000000000E-01  1.1173213338960E+00 -7.1732195690060E-01
17  1.6000000000000E-01  1.1682386096238E+00 -7.0070837294521E-01
18  1.7000000000000E-01  1.2055700493979E+00 -6.6476968642494E-01
19  1.8000000000000E-01  1.2292799867107E+00 -6.0978743200218E-01
20  1.9000000000000E-01  1.2398823124446E+00 -5.3671593488744E-01
21  2.0000000000000E-01  1.2384143110554E+00 -4.4715186476660E-01
22  2.1000000000000E-01  1.2263906711171E+00 -3.4328007132240E-01
23  2.2000000000000E-01  1.2057394057718E+00 -2.2779765366948E-01
24  2.3000000000000E-01  1.1787220919174E+00 -1.0381901411713E-01
25  2.4000000000000E-01  1.1478414195935E+00  2.5234657188816E-02
26  2.5000000000000E-01  1.1157395134283E+00  1.5575745142812E-01
27  2.6000000000000E-01  1.0850908288553E+00  2.8408792799969E-01
28  2.7000000000000E-01  1.0584936246690E+00  4.0664072542359E-01
29  2.8000000000000E-01  1.0383640632878E+00  5.2003581702613E-01
30  2.9000000000000E-01  1.0268368893560E+00  6.2122072145954E-01
31  3.0000000000000E-01  1.0256763901941E+00  7.0758123835379E-01
32  3.1000000000000E-01  1.0362009577412E+00  7.7703670049742E-01
33  3.2000000000000E-01  1.0592240657107E+00  8.2811629989352E-01
34  3.3000000000000E-01  1.0950138669413E+00  8.6001373455751E-01
35  3.4000000000000E-01  1.1432729273416E+00  8.7261821027896E-01
36  3.5000000000000E-01  1.2031388702943E+00  8.6652068754465E-01
37  3.6000000000000E-01  1.2732059366843E+00  8.4299515680917E-01
38  3.7000000000000E-01  1.3515666994910E+00  8.0395562251763E-01
39  3.8000000000000E-01  1.4358724365490E+00  7.5189034495585E-01
40  3.9000000000000E-01  1.5234099877581E+00  6.8977569761382E-01
41  4.0000000000000E-01  1.6111923285086E+00  6.2097271717129E-01
42  4.1000000000000E-01  1.6960596009828E+00  5.4911002780813E-01
43  4.2000000000000E-01  1.7747869768282E+00  4.7795729005038E-01
44  4.3000000000000E-01  1.8441954913954E+00  4.1129364069500E-01
45  4.4000000000000E-01  1.9012618990409E+00  3.5277574412700E-01
46  4.5000000000000E-01  1.9432236533405E+00  3.0581006222999E-01
47  4.6000000000000E-01  1.9676753123722E+00  2.7343377193948E-01
48  4.7000000000000E-01  1.9726529992243E+00  2.5820842418947E-01
49  4.8000000000000E-01  1.9567039982758E+00  2.6212995915596E-01
50  4.9000000000000E-01  1.9189391209682E+00  2.8655808905015E-01
51  5.0000000000000E-01  1.8590661093662E+00  3.3216735440809E-01
52  5.1000000000000E-01  1.7774030376037E+00  3.9892137950897E-01
53  5.2000000000000E-01  1.6748713941820E+00  4.8607102635471E-01
54  5.3000000000000E-01  1.5529692549921E+00  5.9217630503919E-01
55  5.4000000000000E-01  1.4137256609172E+00  7.1515107203143E-01
56  5.5000000000000E-01  1.2596379691356E+00  8.5232876664827E-01
57  5.6000000000000E-01  1.0935945300699E+00  1.0005467275389E+00
58  5.7000000000000E-01  9.1878553157666E-01  1.1562460200265E+00
59  5.8000000000000E-01  7.3860523145176E-01  1.3155832124119E+00
60  5.9000000000000E-01  5.5654905596869E-01  1.4745501809391E+00
61  6.0000000000000E-01  3.7610916810728E-01  1.6290978099604E+00
62  6.1000000000000E-01  2.0067210150797E-01  1.7752593912772E+00
63  6.2000000000000E-01  3.3421917243267E-02  1.9092696143860E+00
64  6.3000000000000E-01 -1.2274792260020E-01  2.0276752715616E+00
65  6.4000000000000E-01 -2.6531114600199E-01  2.1274341672217E+00
66  6.5000000000000E-01 -3.9217138018923E-01  2.2059992039659E+00
67  6.6000000000000E-01 -5.0170918148767E-01  2.2613851980629E+00
68  6.7000000000000E-01 -5.9281219272251E-01  2.2922166317143E+00
69  6.8000000000000E-01 -6.6488787082732E-01  2.2977552526121E+00
70  6.9000000000000E-01 -7.1785886988993E-01  2.2779071561264E+00
71  7.0000000000000E-01 -7.5214178988333E-01  2.2332097048636E+00
72  7.1000000000000E-01 -7.6861058526234E-01  2.1647993277543E+00
73  7.2000000000000E-01 -7.6854644917816E-01  2.0743618717798E+00
74  7.3000000000000E-01 -7.5357642947611E-01  1.9640677318077E+00
75  7.4000000000000E-01 -7.2560337682775E-01  1.8364944394107E+00
76  7.5000000000000E-01 -6.8673006203800E-01  1.6945397355295E+00
77  7.6000000000000E-01 -6.3918042200799E-01  1.5413283746647E+00
78  7.7000000000000E-01 -5.8522089980853E-01  1.3801160050496E+00
79  7.8000000000000E-01 -5.2708473622143E-01  1.2141934400124E+00
80  7.9000000000000E-01 -4.6690185480127E-01  1.0467944854517E+00
81  8.0000000000000E-01 -4.0663667093721E-01  8.8101022649966E-01
82  8.1000000000000E-01 -3.4803576215579E-01  7.1971231668447E-01
83  8.2000000000000E-01 -2.9258687948307E-01  5.6548737223564E-01
84  8.3000000000000E-01 -2.4149027792102E-01  4.2058407246231E-01
85  8.4000000000000E-01 -1.9564281910500E-01  2.8687402598577E-01
86  8.5000000000000E-01 -1.5563477272258E-01  1.6582690465475E-01
87  8.6000000000000E-01 -1.2175873662142E-01  5.8499794850199E-02
88  8.7000000000000E-01 -9.4029628842604E-02 -3.4459808658653E-02
89  8.8000000000000E-01 -7.2214296198363E-02 -1.1279841811387E-01
90  8.9000000000000E-01 -5.5868948848172E-02 -1.7662984116724E-01
91  9.0000000000000E-01 -4.4382380689780E-02 -2.2639913864259E-01
92  9.1000000000000E-01 -3.7022779581072E-02 -2.6283929076720E-01
93  9.2000000000000E-01 -3.2985873699665E-02 -2.8692275731811E-01
94  9.3000000000000E-01 -3.1442200814201E-02 -2.9981016481360E-01
95  9.4000000000000E-01 -3.1581421878057E-02 -3.0279830484307E-01
96  9.5000000000000E-01 -3.2651821217813E-02 -2.9726948792103E-01
97  9.6000000000000E-01 -3.3993431267173E-02 -2.8464407659857E-01
98  9.7000000000000E-01 -3.5063575887638E-02 -2.6633773291229E-01
99  9.8000000000000E-01 -3.5454025932033E-02 -2.4372457427440E-01
100  9.9000000000000E-01 -3.4899385789685E-02 -2.1810705574848E-01
101  1.0000000000000E+00 -3.3276760644242E-02 -1.9069300414834E-01
102  1.0100000000000E+00 -3.0597172087894E-02 -1.6257983913624E-01
103  1.0200000000000E+00 -2.6989576289258E-02 -1.3474564657635E-01
104  1.0300000000000E+00 -2.2678620019816E-02 -1.0804649247934E-01
105  1.0400000000000E+00 -1.7958053193380E-02 -8.3218589751233E-02
106  1.0500000000000E+00 -1.3168114535479E-02 -6.0877684012071E-02
107  1.0600000000000E+00 -8.8502821014380E-03 -4.1346716015300E-02
108  1.0700000000000E+00 -5.2947491957558E-03 -2.5077414847335E-02
109  1.0800000000000E+00 -2.6036327697482E-03 -1.2573172844218E-02
110  1.0900000000000E+00 -8.5060496028290E-04 -4.2196642328809E-03
111  1.1000000000000E+00 -6.5680830163822E-05 -3.3653575138529E-04
112  1.1100000000000E+00  5.0579829698124E-07  2.7062826250041E-06
113  1.1200000000000E+00  5.1281731593939E-07  2.6486518004951E-06
114  1.13  0. -0.
115  1.14  0.  0.
116  1.15  0.  0.
117  1.16  0.  0.
118  1.17  0.  0.
119  1.18  0.  0.
120  1.19  0.  0.
121  1.20  0.  0.
122  1.21  0.  0.
123  1.22  0.  0.
124  1.23  0.  0.
125  1.24  0.  0.
126  1.25  0.  0.
127  1.26  0.  0.
128  1.27  0.  0.
129  1.28  0.  0.
130  1.29  0.  0.
131  1.30  0.  0.
132  1.31  0.  0.
133  1.32  0.  0.
134  1.33  0.  0.
135  1.34  0.  0.
136  1.35  0.  0.
137  1.36  0.  0.
138  1.37  0.  0.
139  1.38  0.  0.
140  1.39  0.  0.
141  1.40  0.  0.
142  1.41  0.  0.
143  1.42  0.  0.
144  1.43  0.  0.
145  1.44  0.  0.
146  1.45  0.  0.
147  1.46  0.  0.
148  1.47  0.  0.
149  1.48  0.  0.
150  1.49  0.  0.
151  1.50  0.  0.
152  1.51  0.  0.
153  1.52  0.  0.
154  1.53  0.  0.
155  1.54  0.  0.
156  1.55  0.  0.
157  1.56  0.  0.
158  1.57  0.  0.
159  1.58  0.  0.
160  1.59  0.  0.
161  1.60  0.  0.
162  1.61  0.  0.
163  1.62  0.  0.
164  1.63  0.  0.
165  1.64  0.  0.
166  1.65  0.  0.
167  1.66  0.  0.
168  1.67  0.  0.
169  1.68  0.  0.
170  1.69  0.  0.
171  1.70  0.  0.
172  1.71  0.  0.
173  1.72  0.  0.
174  1.73  0.  0.
175  1.74  0.  0.
176  1.75  0.  0.
177  1.76  0.  0.
178  1.77  0.  0.
179  1.78  0.  0.
180  1.79  0.  0.
181  1.80  0.  0.
182  1.81  0.  0.
183  1.82  0.  0.
184  1.83  0.  0.
185  1.84  0.  0.
186  1.85  0.  0.
187  1.86  0.  0.
188  1.87  0.  0.
189  1.88  0.  0.
190  1.89  0.  0.
191  1.90  0.  0.
192  1.91  0.  0.
193  1.92  0.  0.
194  1.93  0.  0.
195  1.94  0.  0.
196  1.95  0.  0.
197  1.96  0.  0.
198  1.97  0.  0.
199  1.98  0.  0.
200  1.99  0.  0.
201  2.00  0.  0.
202  2.01  0.  0.
203  2.02  0.  0.
204  2.03  0.  0.
205  2.04  0.  0.
206  2.05  0.  0.
207  2.06  0.  0.
208  2.07  0.  0.
209  2.08  0.  0.
210  2.09  0.  0.
211  2.10  0.  0.
212  2.11  0.  0.
213  2.12  0.  0.
214  2.13  0.  0.
215  2.14  0.  0.
216  2.15  0.  0.
217  2.16  0.  0.
218  2.17  0.  0.
219  2.18  0.  0.
220  2.19  0.  0.
221  2.20  0.  0.
222  2.21  0.  0.
223  2.22  0.  0.
224  2.23  0.  0.
225  2.24  0.  0.
226  2.25  0.  0.
227  2.26  0.  0.
228  2.27  0.  0.
229  2.28  0.  0.
230  2.29  0.  0.
231  2.30  0.  0.
232  2.31  0.  0.
233  2.32  0.  0.
234  2.33  0.  0.
235  2.34  0.  0.
236  2.35  0.  0.
237  2.36  0.  0.
238  2.37  0.  0.
239  2.38  0.  0.
240  2.39  0.  0.
241  2.40  0.  0.
242  2.41  0.  0.
243  2.42  0.  0.
244  2.43  0.  0.
245  2.44  0.  0.
246  2.45  0.  0.
247  2.46  0.  0.
248  2.47  0.  0.
249  2.48  0.  0.
250  2.49  0.  0.
251  2.50  0.  0.
252  2.51  0.  0.
253  2.52  0.  0.
254  2.53  0.  0.
255  2.54  0.  0.
256  2.55  0.  0.
257  2.56  0.  0.
258  2.57  0.  0.
259  2.58  0.  0.
260  2.59  0.  0.
261  2.60  0.  0.
262  2.61  0.  0.
263  2.62  0.  0.
264  2.63  0.  0.
265  2.64  0.  0.
266  2.65  0.  0.
267  2.66  0.  0.
268  2.67  0.  0.
269  2.68  0.  0.
270  2.69  0.  0.
271  2.70  0.  0.
272  2.71  0.  0.
273  2.72  0.  0.
274  2.73  0.  0.
275  2.74  0.  0.
276  2.75  0.  0.
277  2.76  0.  0.
278  2.77  0.  0.
279  2.78  0.  0.
280  2.79  0.  0.
281  2.80  0.  0.
282  2.81  0.  0.
283  2.82  0.  0.
284  2.83  0.  0.
285  2.84  0.  0.
286  2.85  0.  0.
287  2.86  0.  0.
288  2.87  0.  0.
289  2.88  0.  0.
290  2.89  0.  0.
291  2.90  0.  0.
292  2.91  0.  0.
293  2.92  0.  0.
294  2.93  0.  0.
295  2.94  0.  0.
296  2.95  0.  0.
297  2.96  0.  0.
298  2.97  0.  0.
299  2.98  0.  0.
300  2.99  0.  0.
301  3.00  0.  0.
302  3.01  0.  0.
303  3.02  0.  0.
304  3.03  0.  0.
305  3.04  0.  0.
306  3.05  0.  0.
307  3.06  0.  0.
308  3.07  0.  0.
309  3.08  0.  0.
310  3.09  0.  0.
311  3.10  0.  0.
312  3.11  0.  0.
313  3.12  0.  0.
314  3.13  0.  0.
315  3.14  0.  0.
316  3.15  0.  0.
317  3.16  0.  0.
318  3.17  0.  0.
319  3.18  0.  0.
320  3.19  0.  0.
321  3.20  0.  0.
322  3.21  0.  0.
323  3.22  0.  0.
324  3.23  0.  0.
325  3.24  0.  0.
326  3.25  0.  0.
327  3.26  0.  0.
328  3.27  0.  0.
329  3.28  0.  0.
330  3.29  0.  0.
331  3.30  0.  0.
332  3.31  0.  0.
333  3.32  0.  0.
334  3.33  0.  0.
335  3.34  0.  0.
336  3.35  0.  0.
337  3.36  0.  0.
338  3.37  0.  0.
339  3.38  0.  0.
340  3.39  0.  0.
341  3.40  0.  0.
342  3.41  0.  0.
343  3.42  0.  0.
344  3.43  0.  0.
345  3.44  0.  0.
346  3.45  0.  0.
347  3.46  0.  0.
348  3.47  0.  0.
349  3.48  0.  0.
350  3.49  0.  0.
351  3.50  0.  0.
352  3.51  0.  0.
353  3.52  0.  0.
354  3.53  0.  0.
355  3.54  0.  0.
356  3.55  0.  0.
357  3.56  0.  0.
358  3.57  0.  0.
359  3.58  0.  0.
360  3.59  0.  0.
361  3.60  0.  0.
362  3.61  0.  0.
363  3.62  0.  0.
364  3.63  0.  0.
365  3.64  0.  0.
366  3.65  0.  0.
367  3.66  0.  0.
368  3.67  0.  0.
369  3.68  0.  0.
370  3.69  0.  0.
371  3.70  0.  0.
372  3.71  0.  0.
373  3.72  0.  0.
374  3.73  0.  0.
375  3.74  0.  0.
376  3.75  0.  0.
377  3.76  0.  0.
378  3.77  0.  0.
379  3.78  0.  0.
380  3.79  0.  0.
381  3.80  0.  0.
382  3.81  0.  0.
383  3.82  0.  0.
384  3.83  0.  0.
385  3.84  0.  0.
386  3.85  0.  0.
387  3.86  0.  0.
388  3.87  0.  0.
389  3.88  0.  0.
390  3.89  0.  0.
391  3.90  0.  0.
392  3.91  0.  0.
393  3.92  0.  0.
394  3.93  0.  0.
395  3.94  0.  0.
396  3.95  0.  0.
397  3.96  0.  0.
398  3.97  0.  0.
399  3.98  0.  0.
400  3.99  0.  0.
4
1  0.0000000000000E+00 -6.3251836142038E+00
2  1.0000000000000E-02 -6.3242607757821E+00
3  2.0000000000000E-02 -6.3214951902162E+00
4  3.0000000000000E-02 -6.3168963236602E+00
5  4.0000000000000E-02 -6.3104796639643E+00
6  5.0000000000000E-02 -6.3022665480805E+00
7  6.0000000000000E-02 -6.2922838317693E+00
8  7.0000000000000E-02 -6.2805634862982E+00
9  8.0000000000000E-02 -6.2671421365454E+00
10  9.0000000000000E-02 -6.2520605557118E+00
11  1.0000000000000E-01 -6.2353631332492E+00
12  1.1000000000000E-01 -6.2170973314937E+00
13  1.2000000000000E-01 -6.1973131461081E+00
14  1.3000000000000E-01 -6.1760625834329E+00
15  1.4000000000000E-01 -6.1533991660781E+00
16  1.5000000000000E-01 -6.1293774757355E+00
17  1.6000000000000E-01 -6.1040527396403E+00
18  1.7000000000000E-01 -6.0774804650592E+00
19  1.8000000000000E-01 -6.0497161234962E+00
20  1.9000000000000E-01 -6.0208148847148E+00
21  2.0000000000000E-01 -5.9908313989100E+00
22  2.1000000000000E-01 -5.9598196240253E+00
23  2.2000000000000E-01 -5.9278326938102E+00
24  2.3000000000000E-01 -5.8949228225982E+00
25  2.4000000000000E-01 -5.8611412411267E+00
26  2.5000000000000E-01 -5.8265381585357E+00
27  2.6000000000000E-01 -5.7911627454922E+00
28  2.7000000000000E-01 -5.7550631335444E+00
29  2.8000000000000E-01 -5.7182864263692E+00
30  2.9000000000000E-01 -5.6808787188303E+00
31  3.0000000000000E-01 -5.6428851205539E+00
32  3.1000000000000E-01 -5.6043497809266E+00
33  3.2000000000000E-01 -5.5653159129818E+00
34  3.3000000000000E-01 -5.5258258143261E+00
35  3.4000000000000E-01 -5.4859208833947E+00
36  3.5000000000000E-01 -5.4456416296726E+00
37  3.6000000000000E-01 -5.4050276772503E+00
38  3.7000000000000E-01 -5.3641177607072E+00
39  3.8000000000000E-01 -5.3229497131005E+00
40  3.9000000000000E-01 -5.2815604457512E+00
41  4.0000000000000E-01 -5.2399859194869E+00
42  4.1000000000000E-01 -5.1982611075068E+00
43  4.2000000000000E-01 -5.1564199498828E+00
44  4.3000000000000E-01 -5.1144952996045E+00
45  4.4000000000000E-01 -5.0725188605232E+00
46  4.5000000000000E-01 -5.0305211174169E+00
47  4.6000000000000E-01 -4.9885312584133E+00
48  4.7000000000000E-01 -4.9465770904313E+00
49  4.8000000000000E-01 -4.9046849481198E+00
50  4.9000000000000E-01 -4.8628795973564E+00
51  5.0000000000000E-01 -4.8211841343767E+00
52  5.1000000000000E-01 -4.7796198822432E+00
53  5.2000000000000E-01 -4.7382062865219E+00
54  5.3000000000000E-01 -4.6969608127704E+00
55  5.4000000000000E-01 -4.6558988488715E+00
56  5.5000000000000E-01 -4.6150336157886E+00
57  5.6000000000000E-01 -4.5743760909326E+00
58  5.7000000000000E-01 -4.5339349487539E+00
59  5.8000000000000E-01 -4.4937165235925E+00
60  5.9000000000000E-01 -4.4537247999423E+00
61  6.0000000000000E-01 -4.4139614353173E+00
62  6.1000000000000E-01 -4.3744258205184E+00
63  6.2000000000000E-01 -4.3351151814674E+00