Li    ONCVPSP-4.0.1  r_core=   2.20882   2.06815   2.58052
3.0000      1.0000      241113    zatom,zion,pspd
8      11   2     4   516     0    pspcod,pspxc,lmax,lloc,mmax,r2well
5.15000000  5.00000000  0.00000000    rchrg fchrg qchrg
2     2     1     0     0    nproj
1     1           extension_switch
0                         1.7427392504972E+00  3.5238483691138E-01
1  0.0000000000000E+00 -1.7445322963994E-10  2.8213944255982E-11
2  1.0000000000000E-02  4.3706624675395E-02 -2.1821622769176E-07
3  2.0000000000000E-02  8.7316188804260E-02  2.7023803833868E-06
4  3.0000000000000E-02  1.3073223401936E-01  1.1850253776334E-05
5  4.0000000000000E-02  1.7385950126166E-01  3.0213847264185E-05
6  5.0000000000000E-02  2.1660451785293E-01  6.0633258885596E-05
7  6.0000000000000E-02  2.5887616959516E-01  1.0575391938466E-04
8  7.0000000000000E-02  3.0058625311194E-01  1.6798290693854E-04
9  8.0000000000000E-02  3.4165000382152E-01  2.4944850454269E-04
10  9.0000000000000E-02  3.8198659514647E-01  3.5196357122686E-04
11  1.0000000000000E-01  4.2151960481892E-01  4.7699325736351E-04
12  1.1000000000000E-01  4.6017744443068E-01  6.2562754765919E-04
13  1.2000000000000E-01  4.9789374870256E-01  7.9855906344134E-04
14  1.3000000000000E-01  5.3460772130234E-01  9.9606649910736E-04
15  1.4000000000000E-01  5.7026443442487E-01  1.2180040066444E-03
16  1.5000000000000E-01  6.0481507975598E-01  1.4637967775743E-03
17  1.6000000000000E-01  6.3821716887075E-01  1.7324430041923E-03
18  1.7000000000000E-01  6.7043468156339E-01  2.0225223321971E-03
19  1.8000000000000E-01  7.0143816106545E-01  2.3322108454941E-03
20  1.9000000000000E-01  7.3120475557741E-01  2.6593025518266E-03
21  2.0000000000000E-01  7.5971820601295E-01  3.0012372655884E-03
22  2.1000000000000E-01  7.8696878032901E-01  3.3551347126019E-03
23  2.2000000000000E-01  8.1295315528620E-01  3.7178346113689E-03
24  2.3000000000000E-01  8.3767424694698E-01  4.0859424171531E-03
25  2.4000000000000E-01  8.6114099167115E-01  4.4558803498813E-03
26  2.5000000000000E-01  8.8336807980362E-01  4.8239432649758E-03
27  2.6000000000000E-01  9.0437564466556E-01  5.1863588684565E-03
28  2.7000000000000E-01  9.2418890985323E-01  5.5393517246179E-03
29  2.8000000000000E-01  9.4283779821411E-01  5.8792104568541E-03
30  2.9000000000000E-01  9.6035650620626E-01  6.2023575002786E-03
31  3.0000000000000E-01  9.7678304764887E-01  6.5054207291409E-03
32  3.1000000000000E-01  9.9215877113914E-01  6.7853062530615E-03
33  3.2000000000000E-01  1.0065278556386E+00  7.0392716541479E-03
34  3.3000000000000E-01  1.0199367889201E+00  7.2649989223602E-03
35  3.4000000000000E-01  1.0324338337125E+00  7.4606663392913E-03
36  3.5000000000000E-01  1.0440684864829E+00  7.6250185608940E-03
37  3.6000000000000E-01  1.0548909338538E+00  7.7574341577669E-03
38  3.7000000000000E-01  1.0649515116651E+00  7.8579898872195E-03
39  3.8000000000000E-01  1.0743001716605E+00  7.9275209945471E-03
40  3.9000000000000E-01  1.0829859606988E+00  7.9676768714725E-03
41  4.0000000000000E-01  1.0910565172700E+00  7.9809714372910E-03
42  4.1000000000000E-01  1.0985575899315E+00  7.9708276526453E-03
43  4.2000000000000E-01  1.1055325820730E+00  7.9416156266124E-03
44  4.3000000000000E-01  1.1120221271710E+00  7.8986838343856E-03
45  4.4000000000000E-01  1.1180636984109E+00  7.8483830248872E-03
46  4.5000000000000E-01  1.1236912562322E+00  7.7980824644393E-03
47  4.6000000000000E-01  1.1289349370008E+00  7.7561782336442E-03
48  4.7000000000000E-01  1.1338207856288E+00  7.7320933689658E-03
49  4.8000000000000E-01  1.1383705345549E+00  7.7362697178032E-03
50  4.9000000000000E-01  1.1426014310633E+00  7.7801514549687E-03
51  5.0000000000000E-01  1.1465261144732E+00  7.8761602887973E-03
52  5.1000000000000E-01  1.1501525442628E+00  8.0376624659870E-03
53  5.2000000000000E-01  1.1534839797159E+00  8.2789277644504E-03
54  5.3000000000000E-01  1.1565190111977E+00  8.6150807425734E-03
55  5.4000000000000E-01  1.1592516426827E+00  9.0620445902151E-03
56  5.5000000000000E-01  1.1616714246723E+00  9.6364780008152E-03
57  5.6000000000000E-01  1.1637636361692E+00  1.0355705554313E-02
58  5.7000000000000E-01  1.1655095139051E+00  1.1237642166408E-02
59  5.8000000000000E-01  1.1668865265741E+00  1.2300712220523E-02
60  5.9000000000000E-01  1.1678686913915E+00  1.3563764053279E-02
61  6.0000000000000E-01  1.1684269298903E+00  1.5045980512836E-02
62  6.1000000000000E-01  1.1685294594903E+00  1.6766786350326E-02
63  6.2000000000000E-01  1.1681422170231E+00  1.8745753238107E-02
64  6.3000000000000E-01  1.1672293100832E+00  2.1002503233911E-02
65  6.4000000000000E-01  1.1657534917950E+00  2.3556611526751E-02
66  6.5000000000000E-01  1.1636766543489E+00  2.6427509308531E-02
67  6.6000000000000E-01  1.1609603364611E+00  2.9634387614320E-02
68  6.7000000000000E-01  1.1575662397608E+00  3.3196102964153E-02
69  6.8000000000000E-01  1.1534567489999E+00  3.7131085619922E-02
70  6.9000000000000E-01  1.1485954509207E+00  4.1457251242525E-02
71  7.0000000000000E-01  1.1429476466045E+00  4.6191916697025E-02
72  7.1000000000000E-01  1.1364808521594E+00  5.1351720707405E-02
73  7.2000000000000E-01  1.1291652826882E+00  5.6952550007957E-02
74  7.3000000000000E-01  1.1209743146095E+00  6.3009471575738E-02
75  7.4000000000000E-01  1.1118849215807E+00  6.9536671458507E-02
76  7.5000000000000E-01  1.1018780794960E+00  7.6547400635578E-02
77  7.6000000000000E-01  1.0909391362973E+00  8.4053928265864E-02
78  7.7000000000000E-01  1.0790581426448E+00  9.2067502588847E-02
79  7.8000000000000E-01  1.0662301398392E+00  1.0059831965089E-01
80  7.9000000000000E-01  1.0524554017698E+00  1.0965549993246E-01
81  8.0000000000000E-01  1.0377396280795E+00  1.1924707285209E-01
82  8.1000000000000E-01  1.0220940861798E+00  1.2937996902141E-01
83  8.2000000000000E-01  1.0055357002184E+00  1.4006002002356E-01
84  8.3000000000000E-01  9.8808708559465E-01  1.5129196538531E-01
85  8.4000000000000E-01  9.6977652812283E-01  1.6307946631321E-01
86  8.5000000000000E-01  9.5063790746397E-01  1.7542512566610E-01
87  8.6000000000000E-01  9.3071056497450E-01  1.8833051354293E-01
88  8.7000000000000E-01  9.1003911664933E-01  2.0179619777518E-01
89  8.8000000000000E-01  8.8867321236530E-01  2.1582177853082E-01
90  8.9000000000000E-01  8.6666724315198E-01  2.3040592616041E-01
91  9.0000000000000E-01  8.4407999872619E-01  2.4554642134828E-01
92  9.1000000000000E-01  8.2097427801944E-01  2.6124019657330E-01
93  9.2000000000000E-01  7.9741645589925E-01  2.7748337783478E-01
94  9.3000000000000E-01  7.7347600973125E-01  2.9427132556199E-01
95  9.4000000000000E-01  7.4922500984464E-01  3.1159867359950E-01
96  9.5000000000000E-01  7.2473757834617E-01  3.2945936514752E-01
97  9.6000000000000E-01  7.0008932107024E-01  3.4784668453612E-01
98  9.7000000000000E-01  6.7535673775743E-01  3.6675328372548E-01
99  9.8000000000000E-01  6.5061661580876E-01  3.8617120245199E-01
100  9.9000000000000E-01  6.2594541317657E-01  4.0609188098134E-01
101  1.0000000000000E+00  6.0141863611086E-01  4.2650616448657E-01
102  1.0100000000000E+00  5.7711021759100E-01  4.4740429813914E-01
103  1.0200000000000E+00  5.5309190232830E-01  4.6877591208652E-01
104  1.0300000000000E+00  5.2943264422536E-01  4.9060999558954E-01
105  1.0400000000000E+00  5.0619802212757E-01  5.1289485970513E-01
106  1.0500000000000E+00  4.8344967959258E-01  5.3561808802747E-01
107  1.0600000000000E+00  4.6124479424226E-01  5.5876647513966E-01
108  1.0700000000000E+00  4.3963558204754E-01  5.8232595257872E-01
109  1.0800000000000E+00  4.1866884162774E-01  6.0628150228021E-01
110  1.0900000000000E+00  3.9838554333069E-01  6.3061705763997E-01
111  1.1000000000000E+00  3.7882046749504E-01  6.5531539251274E-01
112  1.1100000000000E+00  3.6000189588648E-01  6.8035799865589E-01
113  1.1200000000000E+00  3.4195135985086E-01  7.0572495232183E-01
114  1.1300000000000E+00  3.2468344823702E-01  7.3139477090312E-01
115  1.1400000000000E+00  3.0820567762289E-01  7.5734426073695E-01
116  1.1500000000000E+00  2.9251842682453E-01  7.8354835738166E-01
117  1.1600000000000E+00  2.7761493709547E-01  8.0997995988165E-01
118  1.1700000000000E+00  2.6348137882555E-01  8.3660976074103E-01
119  1.1800000000000E+00  2.5009698494039E-01  8.6340607352504E-01
120  1.1900000000000E+00  2.3743425058273E-01  8.9033466020178E-01
121  1.2000000000000E+00  2.2545919803424E-01  9.1735856052328E-01
122  1.2100000000000E+00  2.1413170521481E-01  9.4443792592077E-01
123  1.2200000000000E+00  2.0340589548114E-01  9.7152986055479E-01
124  1.2300000000000E+00  1.9323058584696E-01  9.9858827231133E-01
125  1.2400000000000E+00  1.8354979016023E-01  1.0255637366721E+00
126  1.2500000000000E+00  1.7430327321326E-01  1.0524033765051E+00
127  1.2600000000000E+00  1.6542715123100E-01  1.0790507609214E+00
128  1.2700000000000E+00  1.5685453367870E-01  1.1054458264204E+00
129  1.2800000000000E+00  1.4851620087300E-01  1.1315248236037E+00
130  1.2900000000000E+00  1.4034131145844E-01  1.1572202927625E+00
131  1.3000000000000E+00  1.3225813343770E-01  1.1824610716509E+00
132  1.3100000000000E+00  1.2419479212081E-01  1.2071723387272E+00
133  1.3200000000000E+00  1.1608002808793E-01  1.2312756950913E+00
134  1.3300000000000E+00  1.0784395804402E-01  1.2546892882546E+00
135  1.3400000000000E+00  9.9418831289092E-02  1.2773279807579E+00
136  1.3500000000000E+00  9.0739774430925E-02  1.2991035664912E+00
137  1.3600000000000E+00  8.1745516933727E-02  1.3199250373754E+00
138  1.3700000000000E+00  7.2379090126545E-02  1.3396989028284E+00
139  1.3800000000000E+00  6.2588492389724E-02  1.3583295641608E+00
140  1.3900000000000E+00  5.2327313396156E-02  1.3757197457304E+00
141  1.4000000000000E+00  4.1555310509305E-02  1.3917709843189E+00
142  1.4100000000000E+00  3.0238930728479E-02  1.4063841777857E+00
143  1.4200000000000E+00  1.8351771923994E-02  1.4194601935966E+00
144  1.4300000000000E+00  5.8749775226913E-03  1.4309005373205E+00
145  1.4400000000000E+00 -7.2024407210925E-03  1.4406080806280E+00
146  1.4500000000000E+00 -2.0883356693157E-02  1.4484878477158E+00
147  1.4600000000000E+00 -3.5162364854588E-02  1.4544478584134E+00
148  1.4700000000000E+00 -5.0025699720940E-02  1.4584000255082E+00
149  1.4800000000000E+00 -6.5451242752705E-02  1.4602611030391E+00
150  1.4900000000000E+00 -8.1408618767812E-02  1.4599536814649E+00
151  1.5000000000000E+00 -9.7859383174903E-02  1.4574072247068E+00
152  1.5100000000000E+00 -1.1475730047441E-01  1.4525591430862E+00
153  1.5200000000000E+00 -1.3204871356894E-01  1.4453558951354E+00
154  1.5300000000000E+00 -1.4967300248870E-01  1.4357541101419E+00
155  1.5400000000000E+00 -1.6756313015294E-01  1.4237217220937E+00
156  1.5500000000000E+00 -1.8564627177682E-01  1.4092391044270E+00
157  1.5600000000000E+00 -2.0384452348110E-01  1.3923001936219E+00
158  1.5700000000000E+00 -2.2207568458850E-01  1.3729135882621E+00
159  1.5800000000000E+00 -2.4025410698403E-01  1.3511036086490E+00
160  1.5900000000000E+00 -2.5829160379392E-01  1.3269113004506E+00
161  1.6000000000000E+00 -2.7609840848975E-01  1.3003953641557E+00
162  1.6100000000000E+00 -2.9358417437159E-01  1.2716329903068E+00
163  1.6200000000000E+00 -3.1065900320607E-01  1.2407205785722E+00
164  1.6300000000000E+00 -3.2723449062831E-01  1.2077743167150E+00
165  1.6400000000000E+00 -3.4322477473406E-01  1.1729305933976E+00
166  1.6500000000000E+00 -3.5854757312182E-01  1.1363462165346E+00
167  1.6600000000000E+00 -3.7312519247999E-01  1.0981984065640E+00
168  1.6700000000000E+00 -3.8688549367275E-01  1.0586845315489E+00
169  1.6800000000000E+00 -3.9976279415755E-01  1.0180215484410E+00
170  1.6900000000000E+00 -4.1169868848097E-01  9.7644511213414E-01
171  1.7000000000000E+00 -4.2264276655140E-01  9.3420831110667E-01
172  1.7100000000000E+00 -4.3255320839236E-01  8.9157998549088E-01
173  1.7200000000000E+00 -4.4139723314311E-01  8.4884258031642E-01
174  1.7300000000000E+00 -4.4915137920999E-01  8.0628948344850E-01
175  1.7400000000000E+00 -4.5580159168865E-01  7.6422179437726E-01
176  1.7500000000000E+00 -4.6134309249456E-01  7.2294446651222E-01
177  1.7600000000000E+00 -4.6578000814591E-01  6.8276176246218E-01
178  1.7700000000000E+00 -4.6912472911280E-01  6.4397195472189E-01
179  1.7800000000000E+00 -4.7139697693977E-01  6.0686121446713E-01
180  1.7900000000000E+00 -4.7262253779524E-01  5.7169653331288E-01
181  1.8000000000000E+00 -4.7283152674502E-01  5.3871696757048E-01
182  1.8100000000000E+00 -4.7205398948078E-01  5.0811119947423E-01
183  1.8200000000000E+00 -4.7031396241772E-01  4.7998921361194E-01
184  1.8300000000000E+00 -4.6762661211605E-01  4.5437319613378E-01
185  1.8400000000000E+00 -4.6399734260798E-01  4.3119942453766E-01
186  1.8500000000000E+00 -4.5942195638722E-01  4.1032493778994E-01
187  1.8600000000000E+00 -4.5388809747024E-01  3.9153976103358E-01
188  1.8700000000000E+00 -4.4737774248384E-01  3.7458301755259E-01
189  1.8800000000000E+00 -4.3987043587986E-01  3.5916119625182E-01
190  1.8900000000000E+00 -4.3134689840304E-01  3.4496674562112E-01
191  1.9000000000000E+00 -4.2179263454349E-01  3.3169535491935E-01
192  1.9100000000000E+00 -4.1120121352715E-01  3.1906066838992E-01
193  1.9200000000000E+00 -3.9957698377163E-01  3.0680567168250E-01
194  1.9300000000000E+00 -3.8693708143335E-01  2.9471048301913E-01
195  1.9400000000000E+00 -3.7331268716713E-01  2.8259668749155E-01
196  1.9500000000000E+00 -3.5874956289212E-01  2.7032864814253E-01
197  1.9600000000000E+00 -3.4330795367350E-01  2.5781239163074E-01
198  1.9700000000000E+00 -3.2706196927659E-01  2.4499271871507E-01
199  1.9800000000000E+00 -3.1009856859115E-01  2.3184915523413E-01
200  1.9900000000000E+00 -2.9251626527377E-01  2.1839128032569E-01
201  2.0000000000000E+00 -2.7442365717277E-01  2.0465385229613E-01
202  2.0100000000000E+00 -2.5593786349466E-01  1.9069204373916E-01
203  2.0200000000000E+00 -2.3718293411716E-01  1.7657699424407E-01
204  2.0300000000000E+00 -2.1828827748653E-01  1.6239180334087E-01
205  2.0400000000000E+00 -1.9938713831095E-01  1.4822801968437E-01
206  2.0500000000000E+00 -1.8061514480943E-01  1.3418263618551E-01
207  2.0600000000000E+00 -1.6210892571297E-01  1.2035556440618E-01
208  2.0700000000000E+00 -1.4400488932381E-01  1.0684756991090E-01
209  2.0800000000000E+00 -1.2643785039621E-01  9.3758533377231E-02
210  2.0900000000000E+00 -1.0954009277933E-01  8.1186140184670E-02
211  2.1000000000000E+00 -9.3441258799009E-02  6.9225052220505E-02
212  2.1100000000000E+00 -7.8275895285902E-02  5.7968319548948E-02
213  2.1200000000000E+00 -6.4168017431833E-02  4.7502856837046E-02
214  2.1300000000000E+00 -5.1223491553617E-02  3.7907145015548E-02
215  2.1400000000000E+00 -3.9543279376972E-02  2.9254590293356E-02
216  2.1500000000000E+00 -2.9220894148915E-02  2.1612749693338E-02
217  2.1600000000000E+00 -2.0342164919311E-02  1.5043234014930E-02
218  2.1700000000000E+00 -1.2985084674279E-02  9.6018548339231E-03
219  2.1800000000000E+00 -7.2198710330584E-03  5.3388954716815E-03
220  2.1900000000000E+00 -3.0793526146509E-03  2.2774230359948E-03
221  2.2000000000000E+00 -7.3698670988449E-04  5.4525167004909E-04
222  2.2100000000000E+00  3.3675756745219E-05 -2.4861059284278E-05
223  2.2200000000000E+00  2.5244352946688E-05 -1.8672582586357E-05
224  2.23 -0.  0.
225  2.24  0. -0.
226  2.25  0. -0.
227  2.26  0. -0.
228  2.27  0.  0.
229  2.28  0.  0.
230  2.29  0.  0.
231  2.30  0.  0.
232  2.31  0.  0.
233  2.32  0.  0.
234  2.33  0.  0.
235  2.34  0.  0.
236  2.35  0.  0.
237  2.36  0.  0.
238  2.37  0.  0.
239  2.38  0.  0.
240  2.39  0.  0.
241  2.40  0.  0.
242  2.41  0.  0.
243  2.42  0.  0.
244  2.43  0.  0.
245  2.44  0.  0.
246  2.45  0.  0.
247  2.46  0.  0.
248  2.47  0.  0.
249  2.48  0.  0.
250  2.49  0.  0.
251  2.50  0.  0.
252  2.51  0.  0.
253  2.52  0.  0.
254  2.53  0.  0.
255  2.54  0.  0.
256  2.55  0.  0.
257  2.56  0.  0.
258  2.57  0.  0.
259  2.58  0.  0.
260  2.59  0.  0.
261  2.60  0.  0.
262  2.61  0.  0.
263  2.62  0.  0.
264  2.63  0.  0.
265  2.64  0.  0.
266  2.65  0.  0.
267  2.66  0.  0.
268  2.67  0.  0.
269  2.68  0.  0.
270  2.69  0.  0.
271  2.70  0.  0.
272  2.71  0.  0.
273  2.72  0.  0.
274  2.73  0.  0.
275  2.74  0.  0.
276  2.75  0.  0.
277  2.76  0.  0.
278  2.77  0.  0.
279  2.78  0.  0.
280  2.79  0.  0.
281  2.80  0.  0.
282  2.81  0.  0.
283  2.82  0.  0.
284  2.83  0.  0.
285  2.84  0.  0.
286  2.85  0.  0.
287  2.86  0.  0.
288  2.87  0.  0.
289  2.88  0.  0.
290  2.89  0.  0.
291  2.90  0.  0.
292  2.91  0.  0.
293  2.92  0.  0.
294  2.93  0.  0.
295  2.94  0.  0.
296  2.95  0.  0.
297  2.96  0.  0.
298  2.97  0.  0.
299  2.98  0.  0.
300  2.99  0.  0.
301  3.00  0.  0.
302  3.01  0.  0.
303  3.02  0.  0.
304  3.03  0.  0.
305  3.04  0.  0.
306  3.05  0.  0.
307  3.06  0.  0.
308  3.07  0.  0.
309  3.08  0.  0.
310  3.09  0.  0.
311  3.10  0.  0.
312  3.11  0.  0.
313  3.12  0.  0.
314  3.13  0.  0.
315  3.14  0.  0.
316  3.15  0.  0.
317  3.16  0.  0.
318  3.17  0.  0.
319  3.18  0.  0.
320  3.19  0.  0.
321  3.20  0.  0.
322  3.21  0.  0.
323  3.22  0.  0.
324  3.23  0.  0.
325  3.24  0.  0.
326  3.25  0.  0.
327  3.26  0.  0.
328  3.27  0.  0.
329  3.28  0.  0.
330  3.29  0.  0.
331  3.30  0.  0.
332  3.31  0.  0.
333  3.32  0.  0.
334  3.33  0.  0.
335  3.34  0.  0.
336  3.35  0.  0.
337  3.36  0.  0.
338  3.37  0.  0.
339  3.38  0.  0.
340  3.39  0.  0.
341  3.40  0.  0.
342  3.41  0.  0.
343  3.42  0.  0.
344  3.43  0.  0.
345  3.44  0.  0.
346  3.45  0.  0.
347  3.46  0.  0.
348  3.47  0.  0.
349  3.48  0.  0.
350  3.49  0.  0.
351  3.50  0.  0.
352  3.51  0.  0.
353  3.52  0.  0.
354  3.53  0.  0.
355  3.54  0.  0.
356  3.55  0.  0.
357  3.56  0.  0.
358  3.57  0.  0.
359  3.58  0.  0.
360  3.59  0.  0.
361  3.60  0.  0.
362  3.61  0.  0.
363  3.62  0.  0.
364  3.63  0.  0.
365  3.64  0.  0.
366  3.65  0.  0.
367  3.66  0.  0.
368  3.67  0.  0.
369  3.68  0.  0.
370  3.69  0.  0.
371  3.70  0.  0.
372  3.71  0.  0.
373  3.72  0.  0.
374  3.73  0.  0.
375  3.74  0.  0.
376  3.75  0.  0.
377  3.76  0.  0.
378  3.77  0.  0.
379  3.78  0.  0.
380  3.79  0.  0.
381  3.80  0.  0.
382  3.81  0.  0.
383  3.82  0.  0.
384  3.83  0.  0.
385  3.84  0.  0.
386  3.85  0.  0.
387  3.86  0.  0.
388  3.87  0.  0.
389  3.88  0.  0.
390  3.89  0.  0.
391  3.90  0.  0.
392  3.91  0.  0.
393  3.92  0.  0.
394  3.93  0.  0.
395  3.94  0.  0.
396  3.95  0.  0.
397  3.96  0.  0.
398  3.97  0.  0.
399  3.98  0.  0.
400  3.99  0.  0.
401  4.00  0.  0.
402  4.01  0.  0.
403  4.02  0.  0.
404  4.03  0.  0.
405  4.04  0.  0.
406  4.05  0.  0.
407  4.06  0.  0.
408  4.07  0.  0.
409  4.08  0.  0.
410  4.09  0.  0.
411  4.10  0.  0.
412  4.11  0.  0.
413  4.12  0.  0.
414  4.13  0.  0.
415  4.14  0.  0.
416  4.15  0.  0.
417  4.16  0.  0.
418  4.17  0.  0.
419  4.18  0.  0.
420  4.19  0.  0.
421  4.20  0.  0.
422  4.21  0.  0.
423  4.22  0.  0.
424  4.23  0.  0.
425  4.24  0.  0.
426  4.25  0.  0.
427  4.26  0.  0.
428  4.27  0.  0.
429  4.28  0.  0.
430  4.29  0.  0.
431  4.30  0.  0.
432  4.31  0.  0.
433  4.32  0.  0.
434  4.33  0.  0.
435  4.34  0.  0.
436  4.35  0.  0.
437  4.36  0.  0.
438  4.37  0.  0.
439  4.38  0.  0.
440  4.39  0.  0.
441  4.40  0.  0.
442  4.41  0.  0.
443  4.42  0.  0.
444  4.43  0.  0.
445  4.44  0.  0.
446  4.45  0.  0.
447  4.46  0.  0.
448  4.47  0.  0.
449  4.48  0.  0.
450  4.49  0.  0.
451  4.50  0.  0.
452  4.51  0.  0.
453  4.52  0.  0.
454  4.53  0.  0.
455  4.54  0.  0.
456  4.55  0.  0.
457  4.56  0.  0.
458  4.57  0.  0.
459  4.58  0.  0.
460  4.59  0.  0.
461  4.60  0.  0.
462  4.61  0.  0.
463  4.62  0.  0.
464  4.63  0.  0.
465  4.64  0.  0.
466  4.65  0.  0.
467  4.66  0.  0.
468  4.67  0.  0.
469  4.68  0.  0.
470  4.69  0.  0.
471  4.70  0.  0.
472  4.71  0.  0.
473  4.72  0.  0.
474  4.73  0.  0.
475  4.74  0.  0.
476  4.75  0.  0.
477  4.76  0.  0.
478  4.77  0.  0.
479  4.78  0.  0.
480  4.79  0.  0.
481  4.80  0.  0.
482  4.81  0.  0.
483  4.82  0.  0.
484  4.83  0.  0.
485  4.84  0.  0.
486  4.85  0.  0.
487  4.86  0.  0.
488  4.87  0.  0.
489  4.88  0.  0.
490  4.89  0.  0.
491  4.90  0.  0.
492  4.91  0.  0.
493  4.92  0.  0.
494  4.93  0.  0.
495  4.94  0.  0.
496  4.95  0.  0.
497  4.96  0.  0.
498  4.97  0.  0.
499  4.98  0.  0.
500  4.99  0.  0.
501  5.00  0.  0.
502  5.01  0.  0.
503  5.02  0.  0.
504  5.03  0.  0.
505  5.04  0.  0.
506  5.05  0.  0.
507  5.06  0.  0.
508  5.07  0.  0.
509  5.08  0.  0.
510  5.09  0.  0.
511  5.10  0.  0.
512  5.11  0.  0.
513  5.12  0.  0.
514  5.13  0.  0.
515  5.14  0.  0.
516  5.15  0.  0.
1                        -3.0838832921261E+00 -1.0807797761999E+00
1  0.0000000000000E+00 -4.5761022748891E-10  5.7617273452326E-10
2  1.0000000000000E-02  9.8722487366851E-04 -4.5011132117512E-04
3  2.0000000000000E-02  3.9471037198173E-03 -1.7994294036369E-03
4  3.0000000000000E-02  8.8742389915465E-03 -4.0448914869691E-03
5  4.0000000000000E-02  1.5759600965434E-02 -7.1813429082981E-03
6  5.0000000000000E-02  2.4590477937922E-02 -1.1201463153701E-02
7  6.0000000000000E-02  3.5350408313468E-02 -1.6095664601072E-02
8  7.0000000000000E-02  4.8019096362047E-02 -2.1851966182632E-02
9  8.0000000000000E-02  6.2572313881260E-02 -2.8455844771414E-02
10  9.0000000000000E-02  7.8981790419287E-02 -3.5890067628380E-02
11  1.0000000000000E-01  9.7215095092285E-02 -4.4134509726334E-02
12  1.1000000000000E-01  1.1723551335737E-01 -5.3165960186530E-02
13  1.2000000000000E-01  1.3900192237425E-01 -6.2957922416350E-02
14  1.3000000000000E-01  1.6246866880025E-01 -7.3480412816376E-02
15  1.4000000000000E-01  1.8758545301161E-01 -8.4699763127652E-02
16  1.5000000000000E-01  2.1429722382450E-01 -9.6578431611485E-02
17  1.6000000000000E-01  2.4254408780204E-01 -1.0907482829225E-01
18  1.7000000000000E-01  2.7226123717668E-01 -1.2214315944755E-01
19  1.8000000000000E-01  3.0337890029145E-01 -1.3573329639939E-01
20  1.9000000000000E-01  3.3582231827051E-01 -1.4979067344681E-01
21  2.0000000000000E-01  3.6951175137081E-01 -1.6425621948665E-01
22  2.1000000000000E-01  4.0436251814691E-01 -1.7906632749895E-01
23  2.2000000000000E-01  4.4028507018360E-01 -1.9415286563219E-01
24  2.3000000000000E-01  4.7718510472203E-01 -2.0944323311662E-01
25  2.4000000000000E-01  5.1496371703002E-01 -2.2486046366862E-01
26  2.5000000000000E-01  5.5351759385367E-01 -2.4032337843359E-01
27  2.6000000000000E-01  5.9273924874185E-01 -2.5574678985768E-01
28  2.7000000000000E-01  6.3251729946696E-01 -2.7104175718867E-01
29  2.8000000000000E-01  6.7273678718118E-01 -2.8611589359493E-01
30  2.9000000000000E-01  7.1327953635788E-01 -3.0087372416626E-01
31  3.0000000000000E-01  7.5402455397970E-01 -3.1521709333512E-01
32  3.1000000000000E-01  7.9484846585889E-01 -3.2904561953867E-01
33  3.2000000000000E-01  8.3562598741860E-01 -3.4225719424434E-01
34  3.3000000000000E-01  8.7623042573600E-01 -3.5474852179245E-01
35  3.4000000000000E-01  9.1653420915592E-01 -3.6641569587979E-01
36  3.5000000000000E-01  9.5640944033643E-01 -3.7715480792660E-01
37  3.6000000000000E-01  9.9572846819023E-01 -3.8686258204533E-01
38  3.7000000000000E-01  1.0343644738465E+00 -3.9543703086990E-01
39  3.8000000000000E-01  1.0721920654797E+00 -4.0277812611659E-01
40  3.9000000000000E-01  1.1090878766423E+00 -4.0878847743761E-01
41  4.0000000000000E-01  1.1449311625979E+00 -4.1337401290116E-01
42  4.1000000000000E-01  1.1796043890837E+00 -4.1644465428996E-01
43  4.2000000000000E-01  1.2129938079408E+00 -4.1791498035796E-01
44  4.3000000000000E-01  1.2449900141307E+00 -4.1770487122146E-01
45  4.4000000000000E-01  1.2754884788139E+00 -4.1574012718765E-01
46  4.5000000000000E-01  1.3043900533950E+00 -4.1195305553869E-01
47  4.6000000000000E-01  1.3316014397365E+00 -4.0628301908939E-01
48  4.7000000000000E-01  1.3570356221059E+00 -3.9867694071955E-01
49  4.8000000000000E-01  1.3806122568447E+00 -3.8908975854050E-01
50  4.9000000000000E-01  1.4022580162265E+00 -3.7748482688565E-01
51  5.0000000000000E-01  1.4219068834970E+00 -3.6383425890761E-01
52  5.1000000000000E-01  1.4395003966565E+00 -3.4811920721370E-01
53  5.2000000000000E-01  1.4549878391428E+00 -3.3033007966690E-01
54  5.3000000000000E-01  1.4683263762009E+00 -3.1046668821184E-01
55  5.4000000000000E-01  1.4794811363601E+00 -2.8853832934569E-01
56  5.5000000000000E-01  1.4884252380883E+00 -2.6456379562983E-01
57  5.6000000000000E-01  1.4951397623363E+00 -2.3857131842148E-01
58  5.7000000000000E-01  1.4996136723138E+00 -2.1059844278218E-01
59  5.8000000000000E-01  1.5018436824515E+00 -1.8069183628311E-01
60  5.9000000000000E-01  1.5018340790826E+00 -1.4890703416412E-01
61  6.0000000000000E-01  1.4995964959210E+00 -1.1530812400511E-01
62  6.1000000000000E-01  1.4951496479084E+00 -7.9967373723838E-02
63  6.2000000000000E-01  1.4885190274497E+00 -4.2964807316626E-02
64  6.3000000000000E-01  1.4797365674386E+00 -4.3877332973625E-03
65  6.4000000000000E-01  1.4688402757977E+00  3.5669768739658E-02
66  6.5000000000000E-01  1.4558738465079E+00  7.7107397613568E-02
67  6.6000000000000E-01  1.4408862522831E+00  1.1981920997489E-01
68  6.7000000000000E-01  1.4239313241470E+00  1.6369422328672E-01
69  6.8000000000000E-01  1.4050673232019E+00  2.0861703586786E-01
70  6.9000000000000E-01  1.3843565098247E+00  2.5446845744503E-01
71  7.0000000000000E-01  1.3618647154083E+00  3.0112614369917E-01
72  7.1000000000000E-01  1.3376609215635E+00  3.4846522841726E-01
73  7.2000000000000E-01  1.3118168514318E+00  3.9635894707296E-01
74  7.3000000000000E-01  1.2844065774264E+00  4.4467924595373E-01
75  7.4000000000000E-01  1.2555061493207E+00  4.9329737132449E-01
76  7.5000000000000E-01  1.2251932461595E+00  5.4208443356136E-01
77  7.6000000000000E-01  1.1935468549644E+00  5.9091194169758E-01
78  7.7000000000000E-01  1.1606469786745E+00  6.3965230438976E-01
79  7.8000000000000E-01  1.1265743751871E+00  6.8817929392615E-01
80  7.9000000000000E-01  1.0914103287764E+00  7.3636847055215E-01
81  8.0000000000000E-01  1.0552364545565E+00  7.8409756507068E-01
82  8.1000000000000E-01  1.0181345360486E+00  8.3124681837609E-01
83  8.2000000000000E-01  9.8018639529925E-01  8.7769927729059E-01
84  8.3000000000000E-01  9.4147379441047E-01  9.2334104677970E-01
85  8.4000000000000E-01  9.0207836676678E-01  9.6806149931800E-01
86  8.5000000000000E-01  8.6208157571110E-01  1.0117534428489E+00
87  8.6000000000000E-01  8.2156469792183E-01  1.0543132494200E+00
88  8.7000000000000E-01  7.8060882829556E-01  1.0956409471737E+00
89  8.8000000000000E-01  7.3929490274597E-01  1.1356402789142E+00
90  8.9000000000000E-01  6.9770373499749E-01  1.1742187309610E+00
91  9.0000000000000E-01  6.5591606318749E-01  1.2112875364144E+00
92  9.1000000000000E-01  6.1401260189656E-01  1.2467616573057E+00
93  9.2000000000000E-01  5.7207409510791E-01  1.2805597503700E+00
94  9.3000000000000E-01  5.3018136555404E-01  1.3126041213673E+00
95  9.4000000000000E-01  4.8841535594482E-01  1.3428206729747E+00
96  9.5000000000000E-01  4.4685715768396E-01  1.3711388512891E+00
97  9.6000000000000E-01  4.0558802287089E-01  1.3974915959039E+00
98  9.7000000000000E-01  3.6468935564827E-01  1.4218152983663E+00
99  9.8000000000000E-01  3.2424267928971E-01  1.4440497735799E+00
100  9.9000000000000E-01  2.8432957582160E-01  1.4641382483934E+00
101  1.0000000000000E+00  2.4503159543323E-01  1.4820273712211E+00
102  1.0100000000000E+00  2.0643013344206E-01  1.4976672460728E+00
103  1.0200000000000E+00  1.6860627314089E-01  1.5110114938418E+00
104  1.0300000000000E+00  1.3164059345093E-01  1.5220173431162E+00
105  1.0400000000000E+00  9.5612940931175E-02  1.5306457521458E+00
106  1.0500000000000E+00  6.0602166341202E-02  1.5368615629330E+00
107  1.0600000000000E+00  2.6685826612033E-02  1.5406336877159E+00
108  1.0700000000000E+00 -6.0601462630665E-03  1.5419353274039E+00
109  1.0800000000000E+00 -3.7561807256466E-02  1.5407442208032E+00
110  1.0900000000000E+00 -6.7747588461485E-02  1.5370429227553E+00
111  1.1000000000000E+00 -9.6548713982272E-02  1.5308191086095E+00
112  1.1100000000000E+00 -1.2389963560002E-01  1.5220659017732E+00
113  1.1200000000000E+00 -1.4973848473981E-01  1.5107822204398E+00
114  1.1300000000000E+00 -1.7400753579643E-01  1.4969731389954E+00
115  1.1400000000000E+00 -1.9665367547524E-01  1.4806502590588E+00
116  1.1500000000000E+00 -2.1762887246705E-01  1.4618320846216E+00
117  1.1600000000000E+00 -2.3689064151405E-01  1.4405443953388E+00
118  1.1700000000000E+00 -2.5440249573748E-01  1.4168206116756E+00
119  1.1800000000000E+00 -2.7013438099352E-01  1.3907021453515E+00
120  1.1900000000000E+00 -2.8406308600209E-01  1.3622387283423E+00
121  1.2000000000000E+00 -2.9617262205546E-01  1.3314887136070E+00
122  1.2100000000000E+00 -3.0645456626007E-01  1.2985193407018E+00
123  1.2200000000000E+00 -3.1490836249456E-01  1.2634069595285E+00
124  1.2300000000000E+00 -3.2154157457550E-01  1.2262372056363E+00
125  1.2400000000000E+00 -3.2637008651013E-01  1.1871051207607E+00
126  1.2500000000000E+00 -3.2941824517363E-01  1.1461152126264E+00
127  1.2600000000000E+00 -3.3071894127373E-01  1.1033814484691E+00
128  1.2700000000000E+00 -3.3031362505391E-01  1.0590271772383E+00
129  1.2800000000000E+00 -3.2825225382432E-01  1.0131849760107E+00
130  1.2900000000000E+00 -3.2459316909633E-01  9.6599641679188E-01
131  1.3000000000000E+00 -3.1940290182064E-01  9.1761175057288E-01
132  1.3100000000000E+00 -3.1275590497979E-01  8.6818950626107E-01
133  1.3200000000000E+00 -3.0473421355693E-01  8.1789600288806E-01
134  1.3300000000000E+00 -2.9542703268690E-01  7.6690477432367E-01
135  1.3400000000000E+00 -2.8493025557809E-01  7.1539590657100E-01
136  1.3500000000000E+00 -2.7334591356746E-01  6.6355528857928E-01
137  1.3600000000000E+00 -2.6078156143293E-01  6.1157377838731E-01
138  1.3700000000000E+00 -2.4734960181932E-01  5.5964628728011E-01
139  1.3800000000000E+00 -2.3316655333581E-01  5.0797078550842E-01
140  1.3900000000000E+00 -2.1835226754118E-01  4.5674723396820E-01
141  1.4000000000000E+00 -2.0302910064801E-01  4.0617644706911E-01
142  1.4100000000000E+00 -1.8732104633565E-01  3.5645889282135E-01