Li    ONCVPSP-4.0.1  r_core=   2.14373   2.06815
3.0000      1.0000      241110    zatom,zion,pspd
8      11   1     4   428     0    pspcod,pspxc,lmax,lloc,mmax,r2well
4.27000000  5.00000000  0.00000000    rchrg fchrg qchrg
2     2     0     0     0    nproj
1     1           extension_switch
0                         3.1242300624187E+00  6.7107517027478E-01
1  0.0000000000000E+00 -7.8887618659707E-10  9.8266361714394E-10
2  1.0000000000000E-02  1.5399628293889E-02 -5.5013365576103E-02
3  2.0000000000000E-02  3.0547561215533E-02 -1.0971130236026E-01
4  3.0000000000000E-02  4.5194396285135E-02 -1.6378114472065E-01
5  4.0000000000000E-02  5.9095295582961E-02 -2.1691572726705E-01
6  5.0000000000000E-02  7.2012215169344E-02 -2.6881607002673E-01
7  6.0000000000000E-02  8.3716071636512E-02 -3.1919398638909E-01
8  7.0000000000000E-02  9.3988825770083E-02 -3.6777458923862E-01
9  8.0000000000000E-02  1.0262546408693E-01 -4.1429867167876E-01
10  9.0000000000000E-02  1.0943585998777E-01 -4.5852493995921E-01
11  1.0000000000000E-01  1.1424649740791E-01 -5.0023207764518E-01
12  1.1000000000000E-01  1.1690204115700E-01 -5.3922062169496E-01
13  1.2000000000000E-01  1.1726673959570E-01 -5.7531463292579E-01
14  1.3000000000000E-01  1.1522564689001E-01 -6.0836314532959E-01
15  1.4000000000000E-01  1.1068565379680E-01 -6.3824138083147E-01
16  1.5000000000000E-01  1.0357631775098E-01 -6.6485171834206E-01
17  1.6000000000000E-01  9.3850484927410E-02 -6.8812440832031E-01
18  1.7000000000000E-01  8.1484698921417E-02 -7.0801802651098E-01
19  1.8000000000000E-01  6.6479392711412E-02 -7.2451966302844E-01
20  1.9000000000000E-01  4.8858862615898E-02 -7.3764484550063E-01
21  2.0000000000000E-01  2.8671025015920E-02 -7.4743719753886E-01
22  2.1000000000000E-01  5.9869586625533E-03 -7.5396783633709E-01
23  2.2000000000000E-01 -1.9099762592120E-02 -7.5733451570229E-01
24  2.3000000000000E-01 -4.6473939832374E-02 -7.5766052325232E-01
25  2.4000000000000E-01 -7.5999813174538E-02 -7.5509334286545E-01
26  2.5000000000000E-01 -1.0752230939533E-01 -7.4980309570343E-01
27  2.6000000000000E-01 -1.4086846085492E-01 -7.4198077523656E-01
28  2.7000000000000E-01 -1.7584898188425E-01 -7.3183629365377E-01
29  2.8000000000000E-01 -2.1225998734846E-01 -7.1959635882535E-01
30  2.9000000000000E-01 -2.4988483678940E-01 -7.0550220258190E-01
31  3.0000000000000E-01 -2.8849608640196E-01 -6.8980718246753E-01
32  3.1000000000000E-01 -3.2785753012293E-01 -6.7277428030204E-01
33  3.2000000000000E-01 -3.6772631031554E-01 -6.5467352183753E-01
34  3.3000000000000E-01 -4.0785507792574E-01 -6.3577934250830E-01
35  3.4000000000000E-01 -4.4799418157271E-01 -6.1636792474396E-01
36  3.5000000000000E-01 -4.8789386482020E-01 -5.9671453253925E-01
37  3.6000000000000E-01 -5.2730645085779E-01 -5.7709086894886E-01
38  3.7000000000000E-01 -5.6598849400368E-01 -5.5776248190163E-01
39  3.8000000000000E-01 -6.0370287781871E-01 -5.3898624320932E-01
40  3.9000000000000E-01 -6.4022084019306E-01 -5.2100792488554E-01
41  4.0000000000000E-01 -6.7532390652555E-01 -5.0405989589904E-01
42  4.1000000000000E-01 -7.0880571305320E-01 -4.8835896127070E-01
43  4.2000000000000E-01 -7.4047370349643E-01 -4.7410436399929E-01
44  4.3000000000000E-01 -7.7015068345239E-01 -4.6147596867963E-01
45  4.4000000000000E-01 -7.9767621838236E-01 -4.5063264387557E-01
46  4.5000000000000E-01 -8.2290786258529E-01 -4.4171085834596E-01
47  4.6000000000000E-01 -8.4572220821391E-01 -4.3482350411418E-01
48  4.7000000000000E-01 -8.6601574515507E-01 -4.3005895714151E-01
49  4.8000000000000E-01 -8.8370552444608E-01 -4.2748038403313E-01
50  4.9000000000000E-01 -8.9872961981541E-01 -4.2712530079558E-01
51  5.0000000000000E-01 -9.1104738390029E-01 -4.2900538719988E-01
52  5.1000000000000E-01 -9.2063949768770E-01 -4.3310655780841E-01
53  5.2000000000000E-01 -9.2750781372841E-01 -4.3938928822137E-01
54  5.3000000000000E-01 -9.3167499566859E-01 -4.4778919261268E-01
55  5.4000000000000E-01 -9.3318395860865E-01 -4.5821784618179E-01
56  5.5000000000000E-01 -9.3209711671842E-01 -4.7056384376850E-01
57  5.6000000000000E-01 -9.2849544639101E-01 -4.8469408358653E-01
58  5.7000000000000E-01 -9.2247737498761E-01 -5.0045526285062E-01
59  5.8000000000000E-01 -9.1415750689666E-01 -5.1767557002113E-01
60  5.9000000000000E-01 -9.0366520018506E-01 -5.3616655649011E-01
61  6.0000000000000E-01 -8.9114300854376E-01 -5.5572516880158E-01
62  6.1000000000000E-01 -8.7674500451098E-01 -5.7613592095227E-01
63  6.2000000000000E-01 -8.6063500108089E-01 -5.9717318497328E-01
64  6.3000000000000E-01 -8.4298468976434E-01 -6.1860357685916E-01
65  6.4000000000000E-01 -8.2397171395188E-01 -6.4018841400124E-01
66  6.5000000000000E-01 -8.0377769702985E-01 -6.6168621960387E-01
67  6.6000000000000E-01 -7.8258624511385E-01 -6.8285524912282E-01
68  6.7000000000000E-01 -7.6058094448490E-01 -7.0345601356797E-01
69  6.8000000000000E-01 -7.3794337384191E-01 -7.2325377455963E-01
70  6.9000000000000E-01 -7.1485115131807E-01 -7.4202098631851E-01
71  7.0000000000000E-01 -6.9147603585196E-01 -7.5953966030095E-01
72  7.1000000000000E-01 -6.6798210195841E-01 -7.7560362895760E-01
73  7.2000000000000E-01 -6.4452400621601E-01 -7.9002068608890E-01
74  7.3000000000000E-01 -6.2124536288467E-01 -8.0261458248354E-01
75  7.4000000000000E-01 -5.9827724499586E-01 -8.1322685694587E-01
76  7.5000000000000E-01 -5.7573682603093E-01 -8.2171848443085E-01
77  7.6000000000000E-01 -5.5372617593148E-01 -8.2797132479482E-01
78  7.7000000000000E-01 -5.3233122368149E-01 -8.3188935762084E-01
79  7.8000000000000E-01 -5.1162089708092E-01 -8.3339969066824E-01
80  7.9000000000000E-01 -4.9164644860741E-01 -8.3245333170950E-01
81  8.0000000000000E-01 -4.7244097445471E-01 -8.2902571583014E-01
82  8.1000000000000E-01 -4.5401913196006E-01 -8.2311698265872E-01
83  8.2000000000000E-01 -4.3637705870576E-01 -8.1475200043983E-01
84  8.3000000000000E-01 -4.1949249462105E-01 -8.0398013634137E-01
85  8.4000000000000E-01 -4.0332510643686E-01 -7.9087477487298E-01
86  8.5000000000000E-01 -3.8781701187794E-01 -7.7553258876310E-01
87  8.6000000000000E-01 -3.7289349903170E-01 -7.5807256907300E-01
88  8.7000000000000E-01 -3.5846393442933E-01 -7.3863482369448E-01
89  8.8000000000000E-01 -3.4442285153101E-01 -7.1737915566137E-01
90  8.9000000000000E-01 -3.3065120953892E-01 -6.9448343488139E-01
91  9.0000000000000E-01 -3.1701781078855E-01 -6.7014177894277E-01
92  9.1000000000000E-01 -3.0338086340220E-01 -6.4456256055220E-01
93  9.2000000000000E-01 -2.8958967444767E-01 -6.1796626089537E-01
94  9.3000000000000E-01 -2.7548645753983E-01 -5.9058318976475E-01
95  9.4000000000000E-01 -2.6090823766595E-01 -5.6265109465627E-01
96  9.5000000000000E-01 -2.4568883502074E-01 -5.3441268218105E-01
97  9.6000000000000E-01 -2.2966090880761E-01 -5.0611307606529E-01
98  9.7000000000000E-01 -2.1265804131330E-01 -4.7799723670343E-01
99  9.8000000000000E-01 -1.9451684209285E-01 -4.5030736768985E-01
100  9.9000000000000E-01 -1.7507905182060E-01 -4.2328033496823E-01
101  1.0000000000000E+00 -1.5419362526955E-01 -3.9714512421098E-01
102  1.0100000000000E+00 -1.3171877297765E-01 -3.7212036176908E-01
103  1.0200000000000E+00 -1.0752394144588E-01 -3.4841192401856E-01
104  1.0300000000000E+00 -8.1491712183544E-02 -3.2621065918007E-01
105  1.0400000000000E+00 -5.3519600569469E-02 -3.0569024470623E-01
106  1.0500000000000E+00 -2.3521736325650E-02 -2.8700520212931E-01
107  1.0600000000000E+00  8.5695916041987E-03 -2.7028908984833E-01
108  1.0700000000000E+00  4.2802541825746E-02 -2.5565289272499E-01
109  1.0800000000000E+00  7.9204493666543E-02 -2.4318362556207E-01
110  1.0900000000000E+00  1.1778100006655E-01 -2.3294316558035E-01
111  1.1000000000000E+00  1.5851493194346E-01 -2.2496732690014E-01
112  1.1100000000000E+00  2.0136582412067E-01 -2.1926518779365E-01
113  1.1200000000000E+00  2.4626943115015E-01 -2.1581867913265E-01
114  1.1300000000000E+00  2.9313749951892E-01 -2.1458244001433E-01
115  1.1400000000000E+00  3.4185776083742E-01 -2.1548394405670E-01
116  1.1500000000000E+00  3.9229414865980E-01 -2.1842389730402E-01
117  1.1600000000000E+00  4.4428723962615E-01 -2.2327690613089E-01
118  1.1700000000000E+00  4.9765491763299E-01 -2.2989241096512E-01
119  1.1800000000000E+00  5.5219325777775E-01 -2.3809587912927E-01
120  1.1900000000000E+00  6.0767762487389E-01 -2.4769024760990E-01
121  1.2000000000000E+00  6.6386397943764E-01 -2.5845760416147E-01
122  1.2100000000000E+00  7.2049038220347E-01 -2.7016109283373E-01
123  1.2200000000000E+00  7.7727868645397E-01 -2.8254702780757E-01
124  1.2300000000000E+00  8.3393640577553E-01 -2.9534719736541E-01
125  1.2400000000000E+00  8.9015874326539E-01 -3.0828133789952E-01
126  1.2500000000000E+00  9.4563076675560E-01 -3.2105975612352E-01
127  1.2600000000000E+00  1.0000297132805E+00 -3.3338607609376E-01
128  1.2700000000000E+00  1.0530274048091E+00 -3.4496008628610E-01
129  1.2800000000000E+00  1.1042927562070E+00 -3.5548066083107E-01
130  1.2900000000000E+00  1.1534943554876E+00 -3.6464872808701E-01
131  1.3000000000000E+00  1.2003030956610E+00 -3.7217025903942E-01
132  1.3100000000000E+00  1.2443948369049E+00 -3.7775924756508E-01
133  1.3200000000000E+00  1.2854530773600E+00 -3.8114065439324E-01
134  1.3300000000000E+00  1.3231716106016E+00 -3.8205328663874E-01
135  1.3400000000000E+00  1.3572571477466E+00 -3.8025258507523E-01
136  1.3500000000000E+00  1.3874318822401E+00 -3.7551329186004E-01
137  1.3600000000000E+00  1.4134359756030E+00 -3.6763197221462E-01
138  1.3700000000000E+00  1.4350299428237E+00 -3.5642936460603E-01
139  1.3800000000000E+00  1.4519969166332E+00 -3.4175253525626E-01
140  1.3900000000000E+00  1.4641447706000E+00 -3.2347681431977E-01
141  1.4000000000000E+00  1.4713080818245E+00 -3.0150749282265E-01
142  1.4100000000000E+00  1.4733499149856E+00 -2.7578126142350E-01
143  1.4200000000000E+00  1.4701634105820E+00 -2.4626737423492E-01
144  1.4300000000000E+00  1.4616731614216E+00 -2.1296852333694E-01
145  1.4400000000000E+00  1.4478363627091E+00 -1.7592141217444E-01
146  1.4500000000000E+00  1.4286437224871E+00 -1.3519701880493E-01
147  1.4600000000000E+00  1.4041201206476E+00 -9.0900542878113E-02
148  1.4700000000000E+00  1.3743250062744E+00 -4.3171033316083E-02
149  1.4800000000000E+00  1.3393525246547E+00  7.8193031124420E-03
150  1.4900000000000E+00  1.2993313669308E+00  6.1866108766727E-02
151  1.5000000000000E+00  1.2544243370017E+00  1.1873419063084E-01
152  1.5100000000000E+00  1.2048276319463E+00  1.7815913372168E-01
153  1.5200000000000E+00  1.1507698338883E+00  2.3984919812273E-01
154  1.5300000000000E+00  1.0925106128544E+00  3.0348748161565E-01
155  1.5400000000000E+00  1.0303391417719E+00  3.6873432607045E-01
156  1.5500000000000E+00  9.6457222629172E-01  4.3522994190102E-01
157  1.5600000000000E+00  8.9555215360139E-01  5.0259722100590E-01
158  1.5700000000000E+00  8.2364426577695E-01  5.7044470471651E-01
159  1.5800000000000E+00  7.4923426451094E-01  6.3836966937697E-01
160  1.5900000000000E+00  6.7272525521452E-01  7.0596128830849E-01
161  1.6000000000000E+00  5.9453453951660E-01  7.7280382506996E-01
162  1.6100000000000E+00  5.1509016603744E-01  8.3847980917056E-01
163  1.6200000000000E+00  4.3482724999613E-01  9.0257314168231E-01
164  1.6300000000000E+00  3.5418407267547E-01  9.6467207463390E-01
165  1.6400000000000E+00  2.7359796975600E-01  1.0243720034561E+00
166  1.6500000000000E+00  1.9350102087593E-01  1.0812780093083E+00
167  1.6600000000000E+00  1.1431567006193E-01  1.1350071518237E+00
168  1.6700000000000E+00  3.6449556777004E-02  1.1851900575644E+00
169  1.6800000000000E+00 -3.9704280652337E-02  1.2314749063977E+00
170  1.6900000000000E+00 -1.1375231043388E-01  1.2735397337744E+00
171  1.7000000000000E+00 -1.8529018214806E-01  1.3111042872244E+00
172  1.7100000000000E+00 -2.5390669731273E-01  1.3439351376153E+00
173  1.7200000000000E+00 -3.1918848424552E-01  1.3718498845744E+00
174  1.7300000000000E+00 -3.8072604725116E-01  1.3947198856232E+00
175  1.7400000000000E+00 -4.3812108884993E-01  1.4124712542312E+00
176  1.7500000000000E+00 -4.9099505324831E-01  1.4250838671750E+00
177  1.7600000000000E+00 -5.3899869890439E-01  1.4325882311297E+00
178  1.7700000000000E+00 -5.8182233248456E-01  1.4350602278224E+00
179  1.7800000000000E+00 -6.1920615490880E-01  1.4326139733471E+00
180  1.7900000000000E+00 -6.5095001124582E-01  1.4253932680814E+00
181  1.8000000000000E+00 -6.7692173635288E-01  1.4135623437567E+00
182  1.8100000000000E+00 -6.9706328778682E-01  1.3972967848514E+00
183  1.8200000000000E+00 -7.1139398016936E-01  1.3767755639669E+00
184  1.8300000000000E+00 -7.2001038236941E-01  1.3521750544891E+00
185  1.8400000000000E+00 -7.2308278238121E-01  1.3236656612543E+00
186  1.8500000000000E+00 -7.2084850723478E-01  1.2914113712581E+00
187  1.8600000000000E+00 -7.1360273521558E-01  1.2555721313694E+00
188  1.8700000000000E+00 -7.0168768741402E-01  1.2163085847405E+00
189  1.8800000000000E+00 -6.8548119106172E-01  1.1737884132080E+00
190  1.8900000000000E+00 -6.6538555940927E-01  1.1281933858190E+00
191  1.9000000000000E+00 -6.4181755516977E-01  1.0797262177882E+00
192  1.9100000000000E+00 -6.1519995282244E-01  1.0286164725537E+00
193  1.9200000000000E+00 -5.8595493606213E-01  9.7512495434072E-01
194  1.9300000000000E+00 -5.5449931697356E-01  9.1954628725188E-01
195  1.9400000000000E+00 -5.2124137858426E-01  8.6220960510144E-01
196  1.9500000000000E+00 -4.8657902648737E-01  8.0347746371329E-01
197  1.9600000000000E+00 -4.5089889029570E-01  7.4374321423256E-01
198  1.9700000000000E+00 -4.1457602527015E-01  6.8342714418463E-01
199  1.9800000000000E+00 -3.7797391218625E-01  6.2297171053299E-01
200  1.9900000000000E+00 -3.4144451510649E-01  5.6283617421805E-01
201  2.0000000000000E+00 -3.0532821254355E-01  5.0349088052798E-01
202  2.0100000000000E+00 -2.6995366214746E-01  4.4541162302692E-01
203  2.0200000000000E+00 -2.3563692295991E-01  3.8907343910178E-01
204  2.0300000000000E+00 -2.0268108615840E-01  3.3494562033958E-01
205  2.0400000000000E+00 -1.7137824777914E-01  2.8349040837438E-01
206  2.0500000000000E+00 -1.4202230311605E-01  2.3517652265590E-01
207  2.0600000000000E+00 -1.1487338872331E-01  1.9042968452648E-01
208  2.0700000000000E+00 -9.0158919191244E-02  1.4963181119701E-01
209  2.0800000000000E+00 -6.8089863861956E-02  1.1314071226735E-01
210  2.0900000000000E+00 -4.8855968895308E-02  8.1282477662705E-02
211  2.1000000000000E+00 -3.2624922185769E-02  5.4349386479223E-02
212  2.1100000000000E+00 -1.9546638571157E-02  3.2606863690677E-02
213  2.1200000000000E+00 -9.7096387203795E-03  1.6220146976114E-02
214  2.1300000000000E+00 -3.2565775506557E-03  5.4482893384002E-03
215  2.1400000000000E+00 -3.7403612029989E-04  6.2689665724980E-04
216  2.1500000000000E+00  1.3409951366129E-04 -2.2486929633809E-04
217  2.1600000000000E+00 -3.5221822857311E-05  5.9007850827798E-05
218  2.17  0. -0.
219  2.18  0. -0.
220  2.19  0. -0.
221  2.20  0.  0.
222  2.21  0.  0.
223  2.22  0.  0.
224  2.23  0.  0.
225  2.24  0.  0.
226  2.25  0.  0.
227  2.26  0.  0.
228  2.27  0.  0.
229  2.28  0.  0.
230  2.29  0.  0.
231  2.30  0.  0.
232  2.31  0.  0.
233  2.32  0.  0.
234  2.33  0.  0.
235  2.34  0.  0.
236  2.35  0.  0.
237  2.36  0.  0.
238  2.37  0.  0.
239  2.38  0.  0.
240  2.39  0.  0.
241  2.40  0.  0.
242  2.41  0.  0.
243  2.42  0.  0.
244  2.43  0.  0.
245  2.44  0.  0.
246  2.45  0.  0.
247  2.46  0.  0.
248  2.47  0.  0.
249  2.48  0.  0.
250  2.49  0.  0.
251  2.50  0.  0.
252  2.51  0.  0.
253  2.52  0.  0.
254  2.53  0.  0.
255  2.54  0.  0.
256  2.55  0.  0.
257  2.56  0.  0.
258  2.57  0.  0.
259  2.58  0.  0.
260  2.59  0.  0.
261  2.60  0.  0.
262  2.61  0.  0.
263  2.62  0.  0.
264  2.63  0.  0.
265  2.64  0.  0.
266  2.65  0.  0.
267  2.66  0.  0.
268  2.67  0.  0.
269  2.68  0.  0.
270  2.69  0.  0.
271  2.70  0.  0.
272  2.71  0.  0.
273  2.72  0.  0.
274  2.73  0.  0.
275  2.74  0.  0.
276  2.75  0.  0.
277  2.76  0.  0.
278  2.77  0.  0.
279  2.78  0.  0.
280  2.79  0.  0.
281  2.80  0.  0.
282  2.81  0.  0.
283  2.82  0.  0.
284  2.83  0.  0.
285  2.84  0.  0.
286  2.85  0.  0.
287  2.86  0.  0.
288  2.87  0.  0.
289  2.88  0.  0.
290  2.89  0.  0.
291  2.90  0.  0.
292  2.91  0.  0.
293  2.92  0.  0.
294  2.93  0.  0.
295  2.94  0.  0.
296  2.95  0.  0.
297  2.96  0.  0.
298  2.97  0.  0.
299  2.98  0.  0.
300  2.99  0.  0.
301  3.00  0.  0.
302  3.01  0.  0.
303  3.02  0.  0.
304  3.03  0.  0.
305  3.04  0.  0.
306  3.05  0.  0.
307  3.06  0.  0.
308  3.07  0.  0.
309  3.08  0.  0.
310  3.09  0.  0.
311  3.10  0.  0.
312  3.11  0.  0.
313  3.12  0.  0.
314  3.13  0.  0.
315  3.14  0.  0.
316  3.15  0.  0.
317  3.16  0.  0.
318  3.17  0.  0.
319  3.18  0.  0.
320  3.19  0.  0.
321  3.20  0.  0.
322  3.21  0.  0.
323  3.22  0.  0.
324  3.23  0.  0.
325  3.24  0.  0.
326  3.25  0.  0.
327  3.26  0.  0.
328  3.27  0.  0.
329  3.28  0.  0.
330  3.29  0.  0.
331  3.30  0.  0.
332  3.31  0.  0.
333  3.32  0.  0.
334  3.33  0.  0.
335  3.34  0.  0.
336  3.35  0.  0.
337  3.36  0.  0.
338  3.37  0.  0.
339  3.38  0.  0.
340  3.39  0.  0.
341  3.40  0.  0.
342  3.41  0.  0.
343  3.42  0.  0.
344  3.43  0.  0.
345  3.44  0.  0.
346  3.45  0.  0.
347  3.46  0.  0.
348  3.47  0.  0.
349  3.48  0.  0.
350  3.49  0.  0.
351  3.50  0.  0.
352  3.51  0.  0.
353  3.52  0.  0.
354  3.53  0.  0.
355  3.54  0.  0.
356  3.55  0.  0.
357  3.56  0.  0.
358  3.57  0.  0.
359  3.58  0.  0.
360  3.59  0.  0.
361  3.60  0.  0.
362  3.61  0.  0.
363  3.62  0.  0.
364  3.63  0.  0.
365  3.64  0.  0.
366  3.65  0.  0.
367  3.66  0.  0.
368  3.67  0.  0.
369  3.68  0.  0.
370  3.69  0.  0.
371  3.70  0.  0.
372  3.71  0.  0.
373  3.72  0.  0.
374  3.73  0.  0.
375  3.74  0.  0.
376  3.75  0.  0.
377  3.76  0.  0.
378  3.77  0.  0.
379  3.78  0.  0.
380  3.79  0.  0.
381  3.80  0.  0.
382  3.81  0.  0.
383  3.82  0.  0.
384  3.83  0.  0.
385  3.84  0.  0.
386  3.85  0.  0.
387  3.86  0.  0.
388  3.87  0.  0.
389  3.88  0.  0.
390  3.89  0.  0.
391  3.90  0.  0.
392  3.91  0.  0.
393  3.92  0.  0.
394  3.93  0.  0.
395  3.94  0.  0.
396  3.95  0.  0.
397  3.96  0.  0.
398  3.97  0.  0.
399  3.98  0.  0.
400  3.99  0.  0.
401  4.00  0.  0.
402  4.01  0.  0.
403  4.02  0.  0.
404  4.03  0.  0.
405  4.04  0.  0.
406  4.05  0.  0.
407  4.06  0.  0.
408  4.07  0.  0.
409  4.08  0.  0.
410  4.09  0.  0.
411  4.10  0.  0.
412  4.11  0.  0.
413  4.12  0.  0.
414  4.13  0.  0.
415  4.14  0.  0.
416  4.15  0.  0.
417  4.16  0.  0.
418  4.17  0.  0.
419  4.18  0.  0.
420  4.19  0.  0.
421  4.20  0.  0.
422  4.21  0.  0.
423  4.22  0.  0.
424  4.23  0.  0.
425  4.24  0.  0.
426  4.25  0.  0.
427  4.26  0.  0.
428  4.27  0.  0.
1                        -4.8156488445758E+00 -1.4723928872674E+00
1  0.0000000000000E+00 -2.6735103020314E-10  4.3379264763610E-10
2  1.0000000000000E-02  1.0929128234795E-03 -6.0016536290492E-04
3  2.0000000000000E-02  4.3689390057752E-03 -2.3985647151168E-03
4  3.0000000000000E-02  9.8199404444156E-03 -5.3889011238104E-03
5  4.0000000000000E-02  1.7432349664719E-02 -9.5606575406469E-03
6  5.0000000000000E-02  2.7187164407794E-02 -1.4899064434522E-02
7  6.0000000000000E-02  3.9059941131151E-02 -2.1385056208359E-02
8  7.0000000000000E-02  5.3020788475472E-02 -2.8995218095132E-02
9  8.0000000000000E-02  6.9034362018474E-02 -3.7701725662118E-02
10  9.0000000000000E-02  8.7059861879661E-02 -4.7472279449472E-02
11  1.0000000000000E-01  1.0705103495347E-01 -5.8270037622385E-02
12  1.1000000000000E-01  1.2895618372884E-01 -7.0053549819352E-02
13  1.2000000000000E-01  1.5271818379668E-01 -8.2776695626440E-02
14  1.3000000000000E-01  1.7827451225021E-01 -9.6388631294667E-02
15  1.4000000000000E-01  2.0555728924451E-01 -1.1083374844059E-01
16  1.5000000000000E-01  2.3449333499827E-01 -1.2605164852645E-01
17  1.6000000000000E-01  2.6500424449321E-01 -1.4197713690390E-01
18  1.7000000000000E-01  2.9700648205265E-01 -1.5854024012368E-01
19  1.8000000000000E-01  3.3041149786278E-01 -1.7566625006352E-01
20  1.9000000000000E-01  3.6512586833775E-01 -1.9327579820882E-01
21  2.0000000000000E-01  4.0105146202582E-01 -2.1128496313864E-01
22  2.1000000000000E-01  4.3808563251068E-01 -2.2960541392610E-01
23  2.2000000000000E-01  4.7612143948253E-01 -2.4814459176271E-01
24  2.3000000000000E-01  5.1504789884235E-01 -2.6680593166510E-01
25  2.4000000000000E-01  5.5475026236338E-01 -2.8548912562735E-01
26  2.5000000000000E-01  5.9511032707162E-01 -3.0409042804831E-01
27  2.6000000000000E-01  6.3600677412768E-01 -3.2250300370044E-01
28  2.7000000000000E-01  6.7731553659992E-01 -3.4061731792074E-01
29  2.8000000000000E-01  7.1891019512121E-01 -3.5832156810597E-01
30  2.9000000000000E-01  7.6066240002310E-01 -3.7550215499047E-01
31  3.0000000000000E-01  8.0244231814865E-01 -3.9204419158626E-01
32  3.1000000000000E-01  8.4411910216471E-01 -4.0783204707882E-01
33  3.2000000000000E-01  8.8556137983144E-01 -4.2274992240843E-01
34  3.3000000000000E-01  9.2663776034730E-01 -4.3668245373363E-01
35  3.4000000000000E-01  9.6721735457731E-01 -4.4951533947911E-01
36  3.5000000000000E-01  1.0071703056953E+00 -4.6113598622198E-01
37  3.6000000000000E-01  1.0463683265322E+00 -4.7143416827610E-01
38  3.7000000000000E-01  1.0846852397271E+00 -4.8030269549885E-01
39  3.8000000000000E-01  1.1219975166254E+00 -4.8763808357495E-01
40  3.9000000000000E-01  1.1581848107693E+00 -4.9334122083162E-01
41  4.0000000000000E-01  1.1931304817712E+00 -4.9731802551220E-01
42  4.1000000000000E-01  1.2267221053636E+00 -4.9948008738399E-01
43  4.2000000000000E-01  1.2588519654711E+00 -4.9974528758181E-01
44  4.3000000000000E-01  1.2894175242549E+00 -4.9803839069167E-01
45  4.4000000000000E-01  1.3183218662370E+00 -4.9429160325930E-01
46  4.5000000000000E-01  1.3454741128195E+00 -4.8844509316258E-01
47  4.6000000000000E-01  1.3707898037639E+00 -4.8044746461402E-01
48  4.7000000000000E-01  1.3941912424978E+00 -4.7025618395390E-01
49  4.8000000000000E-01  1.4156078024508E+00 -4.5783795185287E-01
50  4.9000000000000E-01  1.4349761919983E+00 -4.4316901805748E-01
51  5.0000000000000E-01  1.4522406759953E+00 -4.2623543537841E-01
52  5.1000000000000E-01  1.4673532523162E+00 -4.0703325022996E-01
53  5.2000000000000E-01  1.4802737822647E+00 -3.8556862767388E-01
54  5.3000000000000E-01  1.4909700741874E+00 -3.6185790959192E-01
55  5.4000000000000E-01  1.4994179200954E+00 -3.3592760530083E-01
56  5.5000000000000E-01  1.5056010855737E+00 -3.0781431462161E-01
57  5.6000000000000E-01  1.5095112537309E+00 -2.7756458411293E-01
58  5.7000000000000E-01  1.5111479243973E+00 -2.4523469786665E-01
59  5.8000000000000E-01  1.5105182702230E+00 -2.1089040493330E-01
60  5.9000000000000E-01  1.5076369517478E+00 -1.7460658608771E-01
61  6.0000000000000E-01  1.5025258939006E+00 -1.3646686325116E-01
62  6.1000000000000E-01  1.4952140267454E+00 -9.6563155449417E-02
63  6.2000000000000E-01  1.4857369936067E+00 -5.4995185697634E-02
64  6.3000000000000E-01  1.4741368299809E+00 -1.1869943657339E-02
65  6.4000000000000E-01  1.4604616168700E+00  3.2698890698290E-02
66  6.5000000000000E-01  1.4447651123513E+00  7.8591556851602E-02
67  6.6000000000000E-01  1.4271063653267E+00  1.2568285112987E-01
68  6.7000000000000E-01  1.4075493154683E+00  1.7384278573006E-01
69  6.8000000000000E-01  1.3861623834024E+00  2.2293726329238E-01
70  6.9000000000000E-01  1.3630180551380E+00  2.7282876091286E-01
71  7.0000000000000E-01  1.3381924646706E+00  3.2337701753928E-01
72  7.1000000000000E-01  1.3117649785502E+00  3.7443971882376E-01
73  7.2000000000000E-01  1.2838177860285E+00  4.2587317370703E-01
74  7.3000000000000E-01  1.2544354981690E+00  4.7753297728032E-01
75  7.4000000000000E-01  1.2237047590383E+00  5.2927465480657E-01
76  7.5000000000000E-01  1.1917138717924E+00  5.8095428217715E-01
77  7.6000000000000E-01  1.1585524421340E+00  6.3242907852859E-01
78  7.7000000000000E-01  1.1243110412537E+00  6.8355796723750E-01
79  7.8000000000000E-01  1.0890808899839E+00  7.3420210204509E-01
80  7.9000000000000E-01  1.0529535654933E+00  7.8422535562546E-01
81  8.0000000000000E-01  1.0160207314404E+00  8.3349476849821E-01
82  8.1000000000000E-01  9.7837389209231E-01  8.8188095678438E-01
83  8.2000000000000E-01  9.4010417050703E-01  9.2925847790933E-01
84  8.3000000000000E-01  9.0130211047561E-01  9.7550615395584E-01
85  8.4000000000000E-01  8.6205750153859E-01  1.0205073529581E+00
86  8.5000000000000E-01  8.2245922602648E-01  1.0641502289937E+00
87  8.6000000000000E-01  7.8259512673818E-01  1.1063279224670E+00
88  8.7000000000000E-01  7.4255189356601E-01  1.1469387224789E+00
89  8.8000000000000E-01  7.0241496710675E-01  1.1858861936335E+00
90  8.9000000000000E-01  6.6226845706941E-01  1.2230792700379E+00
91  9.0000000000000E-01  6.2219507310390E-01  1.2584323196050E+00
92  9.1000000000000E-01  5.8227606553510E-01  1.2918651820565E+00
93  9.2000000000000E-01  5.4259117339430E-01  1.3233031842527E+00
94  9.3000000000000E-01  5.0321857709680E-01  1.3526771366325E+00
95  9.4000000000000E-01  4.6423485312042E-01  1.3799233146420E+00
96  9.5000000000000E-01  4.2571492809515E-01  1.4049834290482E+00
97  9.6000000000000E-01  3.8773202981762E-01  1.4278045889888E+00
98  9.7000000000000E-01  3.5035763285379E-01  1.4483392614945E+00
99  9.8000000000000E-01  3.1366139658712E-01  1.4665452310371E+00
100  9.9000000000000E-01  2.7771109380392E-01  1.4823855624164E+00
101  1.0000000000000E+00  2.4257252817927E-01  1.4958285699960E+00
102  1.0100000000000E+00  2.0830943933101E-01  1.5068477959430E+00
103  1.0200000000000E+00  1.7498339444159E-01  1.5154219997282E+00
104  1.0300000000000E+00  1.4265366580240E-01  1.5215351606948E+00
105  1.0400000000000E+00  1.1137709400728E-01  1.5251764950333E+00
106  1.0500000000000E+00  8.1207936904861E-02  1.5263404879928E+00
107  1.0600000000000E+00  5.2197704808148E-02  1.5250269416377E+00
108  1.0700000000000E+00  2.4394982846967E-02  1.5212410379297E+00
109  1.0800000000000E+00 -2.1547582703046E-03  1.5149934163767E+00
110  1.0900000000000E+00 -2.7409361452008E-02  1.5063002649663E+00
111  1.1000000000000E+00 -5.1330190393347E-02  1.4951834225852E+00
112  1.1100000000000E+00 -7.3882342414841E-02  1.4816704906375E+00
113  1.1200000000000E+00 -9.5034864368931E-02  1.4657949511128E+00
114  1.1300000000000E+00 -1.1476096875430E-01  1.4475962879319E+00
115  1.1400000000000E+00 -1.3303824695756E-01  1.4271201080214E+00
116  1.1500000000000E+00 -1.4984887636365E-01  1.4044182582366E+00
117  1.1600000000000E+00 -1.6517981794496E-01  1.3795489339834E+00
118  1.1700000000000E+00 -1.7902300085605E-01  1.3525767751752E+00
119  1.1800000000000E+00 -1.9137549052826E-01  1.3235729450161E+00
120  1.1900000000000E+00 -2.0223963677800E-01  1.2926151870201E+00
121  1.2000000000000E+00 -2.1162319851402E-01  1.2597878556667E+00
122  1.2100000000000E+00 -2.1953944175248E-01  1.2251819161554E+00
123  1.2200000000000E+00 -2.2600720782414E-01  1.1888949088523E+00
124  1.2300000000000E+00 -2.3105094888128E-01  1.1510308742261E+00
125  1.2400000000000E+00 -2.3470072808499E-01  1.1117002343436E+00
126  1.2500000000000E+00 -2.3699218216892E-01  1.0710196273336E+00
127  1.2600000000000E+00 -2.3796644443228E-01  1.0291116916320E+00
128  1.2700000000000E+00 -2.3767002661034E-01  9.8610479728669E-01
129  1.2800000000000E+00 -2.3615465849570E-01  9.4213272211724E-01
130  1.2900000000000E+00 -2.3347708463833E-01  8.9733427109803E-01
131  1.3000000000000E+00 -2.2969881792967E-01  8.5185283794949E-01
132  1.3100000000000E+00 -2.2488585036885E-01  8.0583590857652E-01
133  1.3200000000000E+00 -2.1910832181368E-01  7.5943450668232E-01
134  1.3300000000000E+00 -2.1244014803096E-01  7.1280258260316E-01
135  1.3400000000000E+00 -2.0495860987067E-01  6.6609634714548E-01
136  1.3500000000000E+00 -1.9674390589202E-01  6.1947355295497E-01
137  1.3600000000000E+00 -1.8787867126456E-01  5.7309272670779E-01
138  1.3700000000000E+00 -1.7844746624325E-01  5.2711235617158E-01
139  1.3800000000000E+00 -1.6853623797178E-01  4.8169003693909E-01
140  1.3900000000000E+00 -1.5823175979561E-01  4.3698158437930E-01
141  1.4000000000000E+00 -1.4762105266535E-01  3.9314011708212E-01
142  1.4100000000000E+00 -1.3679079357285E-01  3.5031511878024E-01
143  1.4200000000000E+00 -1.2582671628689E-01  3.0865148641613E-01
144  1.4300000000000E+00 -1.1481300993905E-01  2.6828857268059E-01
145  1.4400000000000E+00 -1.0383172124932E-01  2.2935923197413E-01
146  1.4500000000000E+00 -9.2962166376146E-02  1.9198887933971E-01
147  1.4600000000000E+00 -8.2280358522575E-02  1.5629457247529E-01
148  1.4700000000000E+00 -7.1858457530408E-02  1.2238412746161E-01
149  1.4800000000000E+00 -6.1764247746534E-02  9.0355279333533E-02
150  1.4900000000000E+00 -5.2060650450764E-02  6.0294899083336E-02
151  1.5000000000000E+00 -4.2805277092710E-02  3.2278279110537E-02
152  1.5100000000000E+00 -3.4050029498891E-02  6.3684995316465E-03
153  1.5200000000000E+00 -2.5840753080282E-02 -1.7384111866556E-02
154  1.5300000000000E+00 -1.8216948899034E-02 -3.8942412900488E-02
155  1.5400000000000E+00 -1.1211550242103E-02 -5.8282760033597E-02
156  1.5500000000000E+00 -4.8507691021077E-03 -7.5395187424295E-02
157  1.5600000000000E+00  8.4598231508359E-04 -9.0283437913232E-02
158  1.5700000000000E+00  5.8660902476473E-03 -1.0296483159349E-01
159  1.5800000000000E+00  1.0203653730538E-02 -1.1346995731816E-01
160  1.5900000000000E+00  1.3859310536460E-02 -1.2184217220685E-01
161  1.6000000000000E+00  1.6839970982546E-02 -1.2813689391154E-01
162  1.6100000000000E+00  1.9158456280342E-02 -1.3242067008931E-01
163  1.6200000000000E+00  2.0833038525560E-02 -1.3477000919553E-01
164  1.6300000000000E+00  2.1886879852052E-02 -1.3526995635648E-01
165  1.6400000000000E+00  2.2347368123065E-02 -1.3401239555410E-01
166  1.6500000000000E+00  2.2245347732384E-02 -1.3109406173892E-01
167  1.6600000000000E+00  2.1614276398370E-02 -1.2661436086110E-01
168  1.6700000000000E+00  2.0489113696743E-02 -1.2067227975762E-01
169  1.6800000000000E+00  1.8906559057166E-02 -1.1336822707821E-01
170  1.6900000000000E+00  1.6909300019418E-02 -1.0482033695970E-01