Li    ONCVPSP-4.0.1  r_core=   2.20882   2.20882
3.0000      1.0000      241103    zatom,zion,pspd
8      11   1     4   440     0    pspcod,pspxc,lmax,lloc,mmax,r2well
4.39000000  5.00000000  0.00000000    rchrg fchrg qchrg
2     2     0     0     0    nproj
1     1           extension_switch
0                        -5.9777944175949E-01  2.5532249513024E-01
1  0.0000000000000E+00  2.1259114260652E-11  7.6809530957789E-11
2  1.0000000000000E-02  9.0337851194730E-04 -1.9299055897507E-02
3  2.0000000000000E-02  1.8294266901494E-03 -3.8531096983634E-02
4  3.0000000000000E-02  2.8006970689978E-03 -5.7629524891653E-02
5  4.0000000000000E-02  3.8395087046916E-03 -7.6528571284175E-02
6  5.0000000000000E-02  4.9678323945757E-03 -9.5163705737415E-02
7  6.0000000000000E-02  6.2071782315010E-03 -1.1347203512352E-01
8  7.0000000000000E-02  7.5784862464979E-03 -1.3139269174750E-01
9  8.0000000000000E-02  9.1020208717939E-03 -1.4886720757213E-01
10  9.0000000000000E-02  1.0797269929885E-02 -1.6583987195924E-01
11  1.0000000000000E-01  1.2682848823207E-02 -1.8225807046854E-01
12  1.1000000000000E-01  1.4776410563067E-02 -1.9807260238455E-01
13  1.2000000000000E-01  1.7094562236246E-02 -2.1323797478808E-01
14  1.3000000000000E-01  1.9652788463192E-02 -2.2771267114895E-01
15  1.4000000000000E-01  2.2465382353453E-02 -2.4145939259142E-01
16  1.5000000000000E-01  2.5545384412070E-02 -2.5444527017151E-01
17  1.6000000000000E-01  2.8904529795648E-02 -2.6664204670375E-01
18  1.7000000000000E-01  3.2553204258879E-02 -2.7802622688488E-01
19  1.8000000000000E-01  3.6500409071913E-02 -2.8857919467972E-01
20  1.9000000000000E-01  4.0753735126665E-02 -2.9828729715998E-01
21  2.0000000000000E-01  4.5319346385969E-02 -3.0714189421869E-01
22  2.1000000000000E-01  5.0201972764439E-02 -3.1513937381787E-01
23  2.2000000000000E-01  5.5404912463726E-02 -3.2228113266673E-01
24  2.3000000000000E-01  6.0930043718692E-02 -3.2857352246637E-01
25  2.4000000000000E-01  6.6777845844752E-02 -3.3402776209724E-01
26  2.5000000000000E-01  7.2947429411096E-02 -3.3865981636201E-01
27  2.6000000000000E-01  7.9436575299865E-02 -3.4249024213089E-01
28  2.7000000000000E-01  8.6241782348291E-02 -3.4554400296418E-01
29  2.8000000000000E-01  9.3358323209540E-02 -3.4785025350897E-01
30  2.9000000000000E-01  1.0078030800915E-01 -3.4944209517965E-01
31  3.0000000000000E-01  1.0850075531766E-01 -3.5035630483581E-01
32  3.1000000000000E-01  1.1651166990716E-01 -3.5063303836338E-01
33  3.2000000000000E-01  1.2480412670952E-01 -3.5031551124429E-01
34  3.3000000000000E-01  1.3336836034883E-01 -3.4944965836669E-01
35  3.4000000000000E-01  1.4219385957840E-01 -3.4808377547820E-01
36  3.5000000000000E-01  1.5126946591597E-01 -3.4626814482037E-01
37  3.6000000000000E-01  1.6058347573818E-01 -3.4405464760002E-01
38  3.7000000000000E-01  1.7012374506778E-01 -3.4149636605431E-01
39  3.8000000000000E-01  1.7987779626505E-01 -3.3864717794709E-01
40  3.9000000000000E-01  1.8983292581783E-01 -3.3556134639729E-01
41  4.0000000000000E-01  1.9997631241314E-01 -3.3229310798251E-01
42  4.1000000000000E-01  2.1029512446760E-01 -3.2889626208359E-01
43  4.2000000000000E-01  2.2077662629380E-01 -3.2542376443826E-01
44  4.3000000000000E-01  2.3140828208520E-01 -3.2192732785363E-01
45  4.4000000000000E-01  2.4217785691364E-01 -3.1845703298866E-01
46  4.5000000000000E-01  2.5307351395026E-01 -3.1506095205870E-01
47  4.6000000000000E-01  2.6408390714348E-01 -3.1178478823514E-01
48  4.7000000000000E-01  2.7519826861542E-01 -3.0867153341440E-01
49  4.8000000000000E-01  2.8640649007174E-01 -3.0576114691334E-01
50  4.9000000000000E-01  2.9769919755827E-01 -3.0309025751132E-01
51  5.0000000000000E-01  3.0906781894118E-01 -3.0069189110627E-01
52  5.1000000000000E-01  3.2050464353562E-01 -2.9859522608146E-01
53  5.2000000000000E-01  3.3200287336010E-01 -2.9682537829383E-01
54  5.3000000000000E-01  3.4355666555038E-01 -2.9540321739497E-01
55  5.4000000000000E-01  3.5516116552710E-01 -2.9434521598151E-01
56  5.5000000000000E-01  3.6681253057440E-01 -2.9366333284733E-01
57  5.6000000000000E-01  3.7850794355382E-01 -2.9336493137368E-01
58  5.7000000000000E-01  3.9024561654653E-01 -2.9345273384905E-01
59  5.8000000000000E-01  4.0202478428780E-01 -2.9392481225862E-01
60  5.9000000000000E-01  4.1384568733081E-01 -2.9477461582564E-01
61  6.0000000000000E-01  4.2570954495034E-01 -2.9599103532562E-01
62  6.1000000000000E-01  4.3761851787158E-01 -2.9755850393051E-01
63  6.2000000000000E-01  4.4957566098402E-01 -2.9945713407557E-01
64  6.3000000000000E-01  4.6158486627476E-01 -3.0166288957918E-01
65  6.4000000000000E-01  4.7365079628916E-01 -3.0414779198550E-01
66  6.5000000000000E-01  4.8577880849905E-01 -3.0688015984509E-01
67  6.6000000000000E-01  4.9797487102935E-01 -3.0982487940035E-01
68  6.7000000000000E-01  5.1024547026189E-01 -3.1294370490223E-01
69  6.8000000000000E-01  5.2259751090104E-01 -3.1619558655471E-01
70  6.9000000000000E-01  5.3503820914780E-01 -3.1953702386543E-01
71  7.0000000000000E-01  5.4757497968772E-01 -3.2292244197512E-01
72  7.1000000000000E-01  5.6021531725258E-01 -3.2630458834847E-01
73  7.2000000000000E-01  5.7296667356576E-01 -3.2963494703455E-01
74  7.3000000000000E-01  5.8583633052658E-01 -3.3286416754825E-01
75  7.4000000000000E-01  5.9883127052872E-01 -3.3594250528574E-01
76  7.5000000000000E-01  6.1195804484274E-01 -3.3882027026893E-01
77  7.6000000000000E-01  6.2522264102084E-01 -3.4144828091635E-01
78  7.7000000000000E-01  6.3863035030530E-01 -3.4377831946203E-01
79  7.8000000000000E-01  6.5218563603792E-01 -3.4576358559024E-01
80  7.9000000000000E-01  6.6589200407813E-01 -3.4735914482413E-01
81  8.0000000000000E-01  6.7975187624046E-01 -3.4852236819888E-01
82  8.1000000000000E-01  6.9376646775911E-01 -3.4921335976706E-01
83  8.2000000000000E-01  7.0793566977703E-01 -3.4939536852434E-01
84  8.3000000000000E-01  7.2225793784033E-01 -3.4903518140903E-01
85  8.4000000000000E-01  7.3673018735520E-01 -3.4810349411654E-01
86  8.5000000000000E-01  7.5134769693464E-01 -3.4657525658228E-01
87  8.6000000000000E-01  7.6610402052520E-01 -3.4442999012154E-01
88  8.7000000000000E-01  7.8099090916143E-01 -3.4165207337160E-01
89  8.8000000000000E-01  7.9599824314615E-01 -3.3823099436061E-01
90  8.9000000000000E-01  8.1111397539971E-01 -3.3416156622733E-01
91  9.0000000000000E-01  8.2632408666064E-01 -3.2944410433442E-01
92  9.1000000000000E-01  8.4161255315397E-01 -3.2408456275644E-01
93  9.2000000000000E-01  8.5696132727248E-01 -3.1809462837725E-01
94  9.3000000000000E-01  8.7235033174070E-01 -3.1149177110231E-01
95  9.4000000000000E-01  8.8775746765121E-01 -3.0429924897579E-01
96  9.5000000000000E-01  9.0315863668019E-01 -2.9654606728786E-01
97  9.6000000000000E-01  9.1852777770153E-01 -2.8826689106630E-01
98  9.7000000000000E-01  9.3383691793053E-01 -2.7950191066008E-01
99  9.8000000000000E-01  9.4905623863551E-01 -2.7029666044766E-01
100  9.9000000000000E-01  9.6415415536385E-01 -2.6070179102687E-01
101  1.0000000000000E+00  9.7909741253362E-01 -2.5077279557595E-01
102  1.0100000000000E+00  9.9385119214798E-01 -2.4056969140334E-01
103  1.0200000000000E+00  1.0083792362952E+00 -2.3015665803279E-01
104  1.0300000000000E+00  1.0226439830023E+00 -2.1960163349719E-01
105  1.0400000000000E+00  1.0366067149189E+00 -2.0897587082948E-01
106  1.0500000000000E+00  1.0502277202177E+00 -1.9835345705356E-01
107  1.0600000000000E+00  1.0634664650061E+00 -1.8781079727675E-01
108  1.0700000000000E+00  1.0762817764657E+00 -1.7742606677306E-01
109  1.0800000000000E+00  1.0886320358462E+00 -1.6727863422196E-01
110  1.0900000000000E+00  1.1004753803696E+00 -1.5744845952406E-01
111  1.1000000000000E+00  1.1117699130255E+00 -1.4801546985421E-01
112  1.1100000000000E+00  1.1224739191693E+00 -1.3905891783339E-01
113  1.1200000000000E+00  1.1325460887769E+00 -1.3065672589727E-01
114  1.1300000000000E+00  1.1419457431501E+00 -1.2288482111511E-01
115  1.1400000000000E+00  1.1506330648196E+00 -1.1581646486238E-01
116  1.1500000000000E+00  1.1585693293507E+00 -1.0952158187551E-01
117  1.1600000000000E+00  1.1657171377191E+00 -1.0406609331424E-01
118  1.1700000000000E+00  1.1720406478996E+00 -9.9511258524656E-02
119  1.1800000000000E+00  1.1775058042873E+00 -9.5913030241512E-02
120  1.1900000000000E+00  1.1820805635621E+00 -9.3321427973702E-02
121  1.2000000000000E+00  1.1857351156004E+00 -9.1779934302170E-02
122  1.2100000000000E+00  1.1884420980436E+00 -9.1324918769114E-02
123  1.2200000000000E+00  1.1901768031449E+00 -9.1985093959231E-02
124  1.2300000000000E+00  1.1909173755371E+00 -9.3781008261868E-02
125  1.2400000000000E+00  1.1906449995912E+00 -9.6724579668702E-02
126  1.2500000000000E+00  1.1893440750747E+00 -1.0081867478787E-01
127  1.2600000000000E+00  1.1870023798614E+00 -1.0605673705930E-01
128  1.2700000000000E+00  1.1836112184970E+00 -1.1242246793614E-01
129  1.2800000000000E+00  1.1791655554870E+00 -1.1988956453470E-01
130  1.2900000000000E+00  1.1736641322368E+00 -1.2842151698820E-01
131  1.3000000000000E+00  1.1671095666514E+00 -1.3797146842905E-01
132  1.3100000000000E+00  1.1595084344802E+00 -1.4848214020466E-01
133  1.3200000000000E+00  1.1508713315796E+00 -1.5988582458120E-01
134  1.3300000000000E+00  1.1412129163588E+00 -1.7210444682882E-01
135  1.3400000000000E+00  1.1305519317699E+00 -1.8504969819327E-01
136  1.3500000000000E+00  1.1189112063067E+00 -1.9862324086365E-01
137  1.3600000000000E+00  1.1063176335812E+00 -2.1271698563445E-01
138  1.3700000000000E+00  1.0928021301566E+00 -2.2721344253355E-01
139  1.3800000000000E+00  1.0783995714274E+00 -2.4198614426037E-01
140  1.3900000000000E+00  1.0631487054512E+00 -2.5690014183789E-01
141  1.4000000000000E+00  1.0470920447548E+00 -2.7181257144028E-01
142  1.4100000000000E+00  1.0302757362493E+00 -2.8657329091624E-01
143  1.4200000000000E+00  1.0127494095131E+00 -3.0102558408380E-01
144  1.4300000000000E+00  9.9456600381197E-01 -3.1500693043481E-01
145  1.4400000000000E+00  9.7578157434655E-01 -3.2834983745251E-01
146  1.4500000000000E+00  9.5645507832845E-01 -3.4088273232590E-01
147  1.4600000000000E+00  9.3664814160209E-01 -3.5243090942285E-01
148  1.4700000000000E+00  9.1642480663560E-01 -3.6281752949353E-01
149  1.4800000000000E+00  8.9585126281447E-01 -3.7186466617711E-01
150  1.4900000000000E+00  8.7499556006970E-01 -3.7939439503479E-01
151  1.5000000000000E+00  8.5392730697534E-01 -3.8522991996386E-01
152  1.5100000000000E+00  8.3271735453862E-01 -3.8919673154254E-01
153  1.5200000000000E+00  8.1143746699969E-01 -3.9112379152966E-01
154  1.5300000000000E+00  7.9015998103356E-01 -3.9084473749066E-01
155  1.5400000000000E+00  7.6895745483016E-01 -3.8819910124624E-01
156  1.5500000000000E+00  7.4790230859127E-01 -3.8303353464058E-01
157  1.5600000000000E+00  7.2706645805188E-01 -3.7520303591457E-01
158  1.5700000000000E+00  7.0652094268443E-01 -3.6457216982443E-01
159  1.5800000000000E+00  6.8633555029668E-01 -3.5101627450408E-01
160  1.5900000000000E+00  6.6657843977158E-01 -3.3442264798580E-01
161  1.6000000000000E+00  6.4731576373386E-01 -3.1469170722025E-01
162  1.6100000000000E+00  6.2861129294878E-01 -2.9173811242689E-01
163  1.6200000000000E+00  6.1052604428368E-01 -2.6549184958708E-01
164  1.6300000000000E+00  5.9311791406188E-01 -2.3589926397347E-01
165  1.6400000000000E+00  5.7644131865043E-01 -2.0292403765310E-01
166  1.6500000000000E+00  5.6054684410852E-01 -1.6654810404771E-01
167  1.6600000000000E+00  5.4548090671406E-01 -1.2677249276936E-01
168  1.6700000000000E+00  5.3128542616045E-01 -8.3618098152851E-02
169  1.6800000000000E+00  5.1799751318726E-01 -3.7126365125261E-02
170  1.6900000000000E+00  5.0564917336813E-01  1.2640113672507E-02
171  1.7000000000000E+00  4.9426702873583E-01  6.5597095304572E-02
172  1.7100000000000E+00  4.8387205887072E-01  1.2163828395083E-01
173  1.7200000000000E+00  4.7447936301569E-01  1.8063503337696E-01
174  1.7300000000000E+00  4.6609794471595E-01  2.4243615912978E-01
175  1.7400000000000E+00  4.5873052040442E-01  3.0686786466593E-01
176  1.7500000000000E+00  4.5237335327259E-01  3.7373378514036E-01
177  1.7600000000000E+00  4.4701611367606E-01  4.4281515205203E-01
178  1.7700000000000E+00  4.4264176722859E-01  5.1387108138653E-01
179  1.7800000000000E+00  4.3922649163470E-01  5.8663898729367E-01
180  1.7900000000000E+00  4.3673962320277E-01  6.6083512270767E-01
181  1.8000000000000E+00  4.3514363386060E-01  7.3615524763169E-01
182  1.8100000000000E+00  4.3439413937723E-01  8.1227542511200E-01
183  1.8200000000000E+00  4.3443993935867E-01  8.8885294415270E-01
184  1.8300000000000E+00  4.3522308945564E-01  9.6552736805596E-01
185  1.8400000000000E+00  4.3667900607212E-01  1.0419217058176E+00
186  1.8500000000000E+00  4.3873660371786E-01  1.1176437033507E+00
187  1.8600000000000E+00  4.4131846499081E-01  1.1922872503922E+00
188  1.8700000000000E+00  4.4434104301063E-01  1.2654338979859E+00
189  1.8800000000000E+00  4.4771489595648E-01  1.3366544804412E+00
190  1.8900000000000E+00  4.5134495318606E-01  1.4055108346262E+00
191  1.9000000000000E+00  4.5513081222863E-01  1.4715576083603E+00
192  1.9100000000000E+00  4.5896706575428E-01  1.5343441485382E+00
193  1.9200000000000E+00  4.6274365743115E-01  1.5934164584635E+00
194  1.9300000000000E+00  4.6634626537104E-01  1.6483192126088E+00
195  1.9400000000000E+00  4.6965671166259E-01  1.6985978157844E+00
196  1.9500000000000E+00  4.7255339627309E-01  1.7438004923703E+00
197  1.9600000000000E+00  4.7491175338088E-01  1.7834803899117E+00
198  1.9700000000000E+00  4.7660472797717E-01  1.8171976799874E+00
199  1.9800000000000E+00  4.7750327034045E-01  1.8445216377807E+00
200  1.9900000000000E+00  4.7747684576512E-01  1.8650326803729E+00
201  2.0000000000000E+00  4.7639395667822E-01  1.8783243421777E+00
202  2.0100000000000E+00  4.7412267404825E-01  1.8840051644312E+00
203  2.0200000000000E+00  4.7053117474956E-01  1.8817004740473E+00
204  2.0300000000000E+00  4.6548828131126E-01  1.8710540255494E+00
205  2.0400000000000E+00  4.5886400024187E-01  1.8517294781238E+00
206  2.0500000000000E+00  4.5053005489965E-01  1.8234116782562E+00
207  2.0600000000000E+00  4.4036040747003E-01  1.7858077119057E+00
208  2.0700000000000E+00  4.2823177509211E-01  1.7386477322339E+00
209  2.0800000000000E+00  4.1402410270937E-01  1.6816853936022E+00
210  2.0900000000000E+00  3.9762105120473E-01  1.6146981154188E+00
211  2.1000000000000E+00  3.7891049894263E-01  1.5374871713122E+00
212  2.1100000000000E+00  3.5778614207659E-01  1.4498818466439E+00
213  2.1200000000000E+00  3.3414625722687E-01  1.3517318515416E+00
214  2.1300000000000E+00  3.0789302860669E-01  1.2429018557116E+00
215  2.1400000000000E+00  2.7893411272593E-01  1.1232748335922E+00
216  2.1500000000000E+00  2.4718273656267E-01  9.9274889771202E-01
217  2.1600000000000E+00  2.1255791464668E-01  8.5123427607073E-01
218  2.1700000000000E+00  1.7496774773211E-01  6.9858339385292E-01
219  2.1800000000000E+00  1.3428938349601E-01  5.3450740268475E-01
220  2.1900000000000E+00  9.2004157629445E-02  3.6500050722289E-01
221  2.2000000000000E+00  3.9814275780289E-02  1.5755635293957E-01
222  2.2100000000000E+00 -2.2380908526436E-03 -8.8515757874908E-03
223  2.2200000000000E+00 -2.0379749116239E-03 -8.0565667788306E-03
224  2.23  0.  0.
225  2.24 -0. -0.
226  2.25 -0. -0.
227  2.26 -0. -0.
228  2.27  0.  0.
229  2.28  0.  0.
230  2.29  0.  0.
231  2.30  0.  0.
232  2.31  0.  0.
233  2.32  0.  0.
234  2.33  0.  0.
235  2.34  0.  0.
236  2.35  0.  0.
237  2.36  0.  0.
238  2.37  0.  0.
239  2.38  0.  0.
240  2.39  0.  0.
241  2.40  0.  0.
242  2.41  0.  0.
243  2.42  0.  0.
244  2.43  0.  0.
245  2.44  0.  0.
246  2.45  0.  0.
247  2.46  0.  0.
248  2.47  0.  0.
249  2.48  0.  0.
250  2.49  0.  0.
251  2.50  0.  0.
252  2.51  0.  0.
253  2.52  0.  0.
254  2.53  0.  0.
255  2.54  0.  0.
256  2.55  0.  0.
257  2.56  0.  0.
258  2.57  0.  0.
259  2.58  0.  0.
260  2.59  0.  0.
261  2.60  0.  0.
262  2.61  0.  0.
263  2.62  0.  0.
264  2.63  0.  0.
265  2.64  0.  0.
266  2.65  0.  0.
267  2.66  0.  0.
268  2.67  0.  0.
269  2.68  0.  0.
270  2.69  0.  0.
271  2.70  0.  0.
272  2.71  0.  0.
273  2.72  0.  0.
274  2.73  0.  0.
275  2.74  0.  0.
276  2.75  0.  0.
277  2.76  0.  0.
278  2.77  0.  0.
279  2.78  0.  0.
280  2.79  0.  0.
281  2.80  0.  0.
282  2.81  0.  0.
283  2.82  0.  0.
284  2.83  0.  0.
285  2.84  0.  0.
286  2.85  0.  0.
287  2.86  0.  0.
288  2.87  0.  0.
289  2.88  0.  0.
290  2.89  0.  0.
291  2.90  0.  0.
292  2.91  0.  0.
293  2.92  0.  0.
294  2.93  0.  0.
295  2.94  0.  0.
296  2.95  0.  0.
297  2.96  0.  0.
298  2.97  0.  0.
299  2.98  0.  0.
300  2.99  0.  0.
301  3.00  0.  0.
302  3.01  0.  0.
303  3.02  0.  0.
304  3.03  0.  0.
305  3.04  0.  0.
306  3.05  0.  0.
307  3.06  0.  0.
308  3.07  0.  0.
309  3.08  0.  0.
310  3.09  0.  0.
311  3.10  0.  0.
312  3.11  0.  0.
313  3.12  0.  0.
314  3.13  0.  0.
315  3.14  0.  0.
316  3.15  0.  0.
317  3.16  0.  0.
318  3.17  0.  0.
319  3.18  0.  0.
320  3.19  0.  0.
321  3.20  0.  0.
322  3.21  0.  0.
323  3.22  0.  0.
324  3.23  0.  0.
325  3.24  0.  0.
326  3.25  0.  0.
327  3.26  0.  0.
328  3.27  0.  0.
329  3.28  0.  0.
330  3.29  0.  0.
331  3.30  0.  0.
332  3.31  0.  0.
333  3.32  0.  0.
334  3.33  0.  0.
335  3.34  0.  0.
336  3.35  0.  0.
337  3.36  0.  0.
338  3.37  0.  0.
339  3.38  0.  0.
340  3.39  0.  0.
341  3.40  0.  0.
342  3.41  0.  0.
343  3.42  0.  0.
344  3.43  0.  0.
345  3.44  0.  0.
346  3.45  0.  0.
347  3.46  0.  0.
348  3.47  0.  0.
349  3.48  0.  0.
350  3.49  0.  0.
351  3.50  0.  0.
352  3.51  0.  0.
353  3.52  0.  0.
354  3.53  0.  0.
355  3.54  0.  0.
356  3.55  0.  0.
357  3.56  0.  0.
358  3.57  0.  0.
359  3.58  0.  0.
360  3.59  0.  0.
361  3.60  0.  0.
362  3.61  0.  0.
363  3.62  0.  0.
364  3.63  0.  0.
365  3.64  0.  0.
366  3.65  0.  0.
367  3.66  0.  0.
368  3.67  0.  0.
369  3.68  0.  0.
370  3.69  0.  0.
371  3.70  0.  0.
372  3.71  0.  0.
373  3.72  0.  0.
374  3.73  0.  0.
375  3.74  0.  0.
376  3.75  0.  0.
377  3.76  0.  0.
378  3.77  0.  0.
379  3.78  0.  0.
380  3.79  0.  0.
381  3.80  0.  0.
382  3.81  0.  0.
383  3.82  0.  0.
384  3.83  0.  0.
385  3.84  0.  0.
386  3.85  0.  0.
387  3.86  0.  0.
388  3.87  0.  0.
389  3.88  0.  0.
390  3.89  0.  0.
391  3.90  0.  0.
392  3.91  0.  0.
393  3.92  0.  0.
394  3.93  0.  0.
395  3.94  0.  0.
396  3.95  0.  0.
397  3.96  0.  0.
398  3.97  0.  0.
399  3.98  0.  0.
400  3.99  0.  0.
401  4.00  0.  0.
402  4.01  0.  0.
403  4.02  0.  0.
404  4.03  0.  0.
405  4.04  0.  0.
406  4.05  0.  0.
407  4.06  0.  0.
408  4.07  0.  0.
409  4.08  0.  0.
410  4.09  0.  0.
411  4.10  0.  0.
412  4.11  0.  0.
413  4.12  0.  0.
414  4.13  0.  0.
415  4.14  0.  0.
416  4.15  0.  0.
417  4.16  0.  0.
418  4.17  0.  0.
419  4.18  0.  0.
420  4.19  0.  0.
421  4.20  0.  0.
422  4.21  0.  0.
423  4.22  0.  0.
424  4.23  0.  0.
425  4.24  0.  0.
426  4.25  0.  0.
427  4.26  0.  0.
428  4.27  0.  0.
429  4.28  0.  0.
430  4.29  0.  0.
431  4.30  0.  0.
432  4.31  0.  0.
433  4.32  0.  0.
434  4.33  0.  0.
435  4.34  0.  0.
436  4.35  0.  0.
437  4.36  0.  0.
438  4.37  0.  0.
439  4.38  0.  0.
440  4.39  0.  0.
1                        -3.8930761758649E+00 -1.2875311007996E+00
1  0.0000000000000E+00  1.4672325854281E-11 -1.2098308466157E-11
2  1.0000000000000E-02  7.0865280697839E-04 -3.5051353818650E-04
3  2.0000000000000E-02  2.8331126852981E-03 -1.4009117965441E-03
4  3.0000000000000E-02  6.3688873202478E-03 -3.1477705140068E-03
5  4.0000000000000E-02  1.1308500556994E-02 -5.5853919411728E-03
6  5.0000000000000E-02  1.7641508929194E-02 -8.7058188476057E-03
7  6.0000000000000E-02  2.5354524747234E-02 -1.2498854089504E-02
8  7.0000000000000E-02  3.4431245694406E-02 -1.6952085695311E-02
9  8.0000000000000E-02  4.4852490864720E-02 -2.2050917414735E-02
10  9.0000000000000E-02  5.6596243161544E-02 -2.7778604664702E-02
11  1.0000000000000E-01  6.9637697961942E-02 -3.4116295793905E-02
12  1.1000000000000E-01  8.3949317937414E-02 -4.1043078575774E-02
13  1.2000000000000E-01  9.9500893907737E-02 -4.8536031828084E-02
14  1.3000000000000E-01  1.1625961159094E-01 -5.6570282045855E-02
15  1.4000000000000E-01  1.3419012409887E-01 -6.5119064922874E-02
16  1.5000000000000E-01  1.5325463001478E-01 -7.4153791625913E-02
17  1.6000000000000E-01  1.7341295687619E-01 -8.3644119674793E-02
18  1.7000000000000E-01  1.9462264987408E-01 -9.3558028270631E-02
19  1.8000000000000E-01  2.1683906556707E-01 -1.0386189790404E-01
20  1.9000000000000E-01  2.4001547039748E-01 -1.1452059406486E-01
21  2.0000000000000E-01  2.6410314378491E-01 -1.2549755486487E-01
22  2.1000000000000E-01  2.8905148556192E-01 -1.3675488237540E-01
23  2.2000000000000E-01  3.1480812750620E-01 -1.4825343747224E-01
24  2.3000000000000E-01  3.4131904871333E-01 -1.5995293797146E-01
25  2.4000000000000E-01  3.6852869454525E-01 -1.7181205983079E-01
26  2.5000000000000E-01  3.9638009888045E-01 -1.8378854118346E-01
27  2.6000000000000E-01  4.2481500938366E-01 -1.9583928896324E-01
28  2.7000000000000E-01  4.5377401550543E-01 -2.0792048787222E-01
29  2.8000000000000E-01  4.8319667891463E-01 -2.1998771143622E-01
30  2.9000000000000E-01  5.1302166606086E-01 -2.3199603488612E-01
31  3.0000000000000E-01  5.4318688255797E-01 -2.4390014959785E-01
32  3.1000000000000E-01  5.7362960907501E-01 -2.5565447881845E-01
33  3.2000000000000E-01  6.0428663841657E-01 -2.6721329440111E-01
34  3.3000000000000E-01  6.3509441347119E-01 -2.7853083426800E-01
35  3.4000000000000E-01  6.6598916570376E-01 -2.8956142031639E-01
36  3.5000000000000E-01  6.9690705386579E-01 -3.0025957648094E-01
37  3.6000000000000E-01  7.2778430259638E-01 -3.1058014666286E-01
38  3.7000000000000E-01  7.5855734058655E-01 -3.2047841223558E-01
39  3.8000000000000E-01  7.8916293797984E-01 -3.2991020883588E-01
40  3.9000000000000E-01  8.1953834268363E-01 -3.3883204214950E-01
41  4.0000000000000E-01  8.4962141526771E-01 -3.4720120240142E-01
42  4.1000000000000E-01  8.7935076212978E-01 -3.5497587726259E-01
43  4.2000000000000E-01  9.0866586661123E-01 -3.6211526288723E-01
44  4.3000000000000E-01  9.3750721775151E-01 -3.6857967279847E-01
45  4.4000000000000E-01  9.6581643637479E-01 -3.7433064434370E-01
46  4.5000000000000E-01  9.9353639820917E-01 -3.7933104244640E-01
47  4.6000000000000E-01  1.0206113537457E+00 -3.8354516038635E-01
48  4.7000000000000E-01  1.0469870445529E+00 -3.8693881734710E-01
49  4.8000000000000E-01  1.0726108157709E+00 -3.8947945247638E-01
50  4.9000000000000E-01  1.0974317245194E+00 -3.9113621521365E-01
51  5.0000000000000E-01  1.1214006439639E+00 -3.9188005164726E-01
52  5.1000000000000E-01  1.1444703627956E+00 -3.9168378667378E-01
53  5.2000000000000E-01  1.1665956798924E+00 -3.9052220174194E-01
54  5.3000000000000E-01  1.1877334939416E+00 -3.8837210797488E-01
55  5.4000000000000E-01  1.2078428878174E+00 -3.8521241447592E-01
56  5.5000000000000E-01  1.2268852075202E+00 -3.8102419163560E-01
57  5.6000000000000E-01  1.2448241354992E+00 -3.7579072927046E-01
58  5.7000000000000E-01  1.2616257581963E+00 -3.6949758943766E-01
59  5.8000000000000E-01  1.2772586276618E+00 -3.6213265378389E-01
60  5.9000000000000E-01  1.2916938171114E+00 -3.5368616530101E-01
61  6.0000000000000E-01  1.3049049703084E+00 -3.4415076437656E-01
62  6.1000000000000E-01  1.3168683446731E+00 -3.3352151904233E-01
63  6.2000000000000E-01  1.3275628480374E+00 -3.2179594933996E-01
64  6.3000000000000E-01  1.3369700689802E+00 -3.0897404573906E-01
65  6.4000000000000E-01  1.3450743006982E+00 -2.9505828155908E-01
66  6.5000000000000E-01  1.3518625583809E+00 -2.8005361936336E-01
67  6.6000000000000E-01  1.3573245900815E+00 -2.6396751130993E-01
68  6.7000000000000E-01  1.3614528810873E+00 -2.4680989346071E-01
69  6.8000000000000E-01  1.3642426518159E+00 -2.2859317406741E-01
70  6.9000000000000E-01  1.3656918492796E+00 -2.0933221586915E-01
71  7.0000000000000E-01  1.3658011321749E+00 -1.8904431245337E-01
72  7.1000000000000E-01  1.3645738496777E+00 -1.6774915874816E-01
73  7.2000000000000E-01  1.3620160140350E+00 -1.4546881573005E-01
74  7.3000000000000E-01  1.3581362670655E+00 -1.2222766944754E-01
75  7.4000000000000E-01  1.3529458406954E+00 -9.8052384475749E-02
76  7.5000000000000E-01  1.3464585116725E+00 -7.2971851932966E-02
77  7.6000000000000E-01  1.3386905506167E+00 -4.7017132204318E-02
78  7.7000000000000E-01  1.3296606655796E+00 -2.0221392531849E-02
79  7.8000000000000E-01  1.3193899403008E+00  7.3801603562002E-03
80  7.9000000000000E-01  1.3079017673620E+00  3.5750352391373E-02
81  8.0000000000000E-01  1.2952217764508E+00  6.4850118888505E-02
82  8.1000000000000E-01  1.2813777579621E+00  9.4638585637726E-02
83  8.2000000000000E-01  1.2663995821718E+00  1.2507315414532E-01
84  8.3000000000000E-01  1.2503191142318E+00  1.5610959079401E-01
85  8.4000000000000E-01  1.2331701252424E+00  1.8770211968440E-01
86  8.5000000000000E-01  1.2149881996666E+00  2.1980351891120E-01
87  8.6000000000000E-01  1.1958106393624E+00  2.5236522002089E-01
88  8.7000000000000E-01  1.1756763645096E+00  2.8533741039124E-01
89  8.8000000000000E-01  1.1546258117198E+00  3.1866913826778E-01
90  8.9000000000000E-01  1.1327008296188E+00  3.5230842018844E-01
91  9.0000000000000E-01  1.1099445721957E+00  3.8620235052382E-01
92  9.1000000000000E-01  1.0864013902171E+00  4.2029721285872E-01
93  9.2000000000000E-01  1.0621167210047E+00  4.5453859293882E-01
94  9.3000000000000E-01  1.0371369768763E+00  4.8887149290641E-01
95  9.4000000000000E-01  1.0115094325498E+00  5.2324044654923E-01
96  9.5000000000000E-01  9.8528211180914E-01  5.5758963528850E-01
97  9.6000000000000E-01  9.5850367372873E-01  5.9186300463402E-01
98  9.7000000000000E-01  9.3122329874884E-01  6.2600438083797E-01
99  9.8000000000000E-01  9.0349057489224E-01  6.5995758748292E-01
100  9.9000000000000E-01  8.7535538440622E-01  6.9366656174444E-01
101  1.0000000000000E+00  8.4686779110856E-01  7.2707547007452E-01
102  1.0100000000000E+00  8.1807792870999E-01  7.6012882305802E-01
103  1.0200000000000E+00  7.8903589037774E-01  7.9277158920188E-01
104  1.0300000000000E+00  7.5979161979709E-01  8.2494930742389E-01
105  1.0400000000000E+00  7.3039480397895E-01  8.5660819801631E-01
106  1.0500000000000E+00  7.0089476805222E-01  8.8769527186809E-01
107  1.0600000000000E+00  6.7134037226953E-01  9.1815843773852E-01
108  1.0700000000000E+00  6.4177991144476E-01  9.4794660738442E-01
109  1.0800000000000E+00  6.1226101702959E-01  9.7700979835280E-01
110  1.0900000000000E+00  5.8283056202499E-01  1.0052992342605E+00
111  1.1000000000000E+00  5.5353456891212E-01  1.0327674423926E+00
112  1.1100000000000E+00  5.2441812077464E-01  1.0593683484614E+00
113  1.1200000000000E+00  4.9552527577283E-01  1.0850573683774E+00
114  1.1300000000000E+00  4.6689898511715E-01  1.1097914968944E+00
115  1.1400000000000E+00  4.3858101467639E-01  1.1335293930005E+00
116  1.1500000000000E+00  4.1061187034350E-01  1.1562314619361E+00
117  1.1600000000000E+00  3.8303072726916E-01  1.1778599337288E+00
118  1.1700000000000E+00  3.5587536306119E-01  1.1983789381474E+00
119  1.1800000000000E+00  3.2918209503542E-01  1.2177545759800E+00
120  1.1900000000000E+00  3.0298572159169E-01  1.2359549865568E+00
121  1.2000000000000E+00  2.7731946777678E-01  1.2529504114391E+00
122  1.2100000000000E+00  2.5221493508452E-01  1.2687132542074E+00
123  1.2200000000000E+00  2.2770205553230E-01  1.2832181362888E+00
124  1.2300000000000E+00  2.0380905004220E-01  1.2964419487650E+00
125  1.2400000000000E+00  1.8056239114466E-01  1.3083639001146E+00
126  1.2500000000000E+00  1.5798677001271E-01  1.3189655598427E+00
127  1.2600000000000E+00  1.3610506782531E-01  1.3282308979577E+00
128  1.2700000000000E+00  1.1493833144926E-01  1.3361463202585E+00
129  1.2800000000000E+00  9.4505753420968E-02  1.3427006993975E+00
130  1.2900000000000E+00  7.4824656201225E-02  1.3478854016881E+00
131  1.3000000000000E+00  5.5910480668938E-02  1.3516943096256E+00
132  1.3100000000000E+00  3.7776778812960E-02  1.3541238400929E+00
133  1.3200000000000E+00  2.0435210574861E-02  1.3551729582228E+00
134  1.3300000000000E+00  3.8955447898555E-03  1.3548431868866E+00
135  1.3400000000000E+00 -1.1834335832124E-02  1.3531386117810E+00
136  1.3500000000000E+00 -2.6748425747792E-02  1.3500658820817E+00
137  1.3600000000000E+00 -4.0842583711141E-02  1.3456342066331E+00
138  1.3700000000000E+00 -5.4114516063754E-02  1.3398553456396E+00
139  1.3800000000000E+00 -6.6563756258567E-02  1.3327435978228E+00
140  1.3900000000000E+00 -7.8191640693601E-02  1.3243157830080E+00
141  1.4000000000000E+00 -8.9001280934776E-02  1.3145912200985E+00
142  1.4100000000000E+00 -9.8997532408979E-02  1.3035917003970E+00
143  1.4200000000000E+00 -1.0818695965060E-01  1.2913414562281E+00
144  1.4300000000000E+00 -1.1657779818630E-01  1.2778671248176E+00
145  1.4400000000000E+00 -1.2417991314443E-01  1.2631977073785E+00
146  1.4500000000000E+00 -1.3100475467683E-01  1.2473645233551E+00
147  1.4600000000000E+00 -1.3706531028222E-01  1.2304011597764E+00
148  1.4700000000000E+00 -1.4237605412152E-01  1.2123434156665E+00
149  1.4800000000000E+00 -1.4695289341735E-01  1.1932292414629E+00
150  1.4900000000000E+00 -1.5081311203087E-01  1.1730986733952E+00
151  1.5000000000000E+00 -1.5397531131156E-01  1.1519937627765E+00
152  1.5100000000000E+00 -1.5645934831689E-01  1.1299585001660E+00
153  1.5200000000000E+00 -1.5828627150164E-01  1.1070387343627E+00
154  1.5300000000000E+00 -1.5947825397888E-01  1.0832820861991E+00
155  1.5400000000000E+00 -1.6005852445796E-01  1.0587378571080E+00
156  1.5500000000000E+00 -1.6005129596807E-01  1.0334569324439E+00
157  1.5600000000000E+00 -1.5948169248010E-01  1.0074916795543E+00
158  1.5700000000000E+00 -1.5837567354398E-01  9.8089584060101E-01
159  1.5800000000000E+00 -1.5675995706379E-01  9.5372442015130E-01
160  1.5900000000000E+00 -1.5466194033832E-01  9.2603356756877E-01
161  1.6000000000000E+00 -1.5210961950160E-01  8.9788045425285E-01
162  1.6100000000000E+00 -1.4913150750399E-01  8.6932314579338E-01
163  1.6200000000000E+00 -1.4575655078281E-01  8.4042046912691E-01