Li    ONCVPSP-4.0.1  r_core=   2.20882   2.20882
3.0000      1.0000      241103    zatom,zion,pspd
8      11   1     4   440     0    pspcod,pspxc,lmax,lloc,mmax,r2well
4.39000000  5.00000000  0.00000000    rchrg fchrg qchrg
2     2     0     0     0    nproj
1     1           extension_switch
0                         6.7986492015800E-01  4.7318288696144E-01
1  0.0000000000000E+00 -3.1538254646746E-11  2.4327581615857E-11
2  1.0000000000000E-02  1.1280336954240E-03 -1.3965044063404E-02
3  2.0000000000000E-02  2.2300918229647E-03 -2.7914163642528E-02
4  3.0000000000000E-02  3.2803899520950E-03 -4.1831560125588E-02
5  4.0000000000000E-02  4.2535247289356E-03 -5.5701685711429E-02
6  5.0000000000000E-02  5.1246614274416E-03 -6.9509366485140E-02
7  6.0000000000000E-02  5.8697179384251E-03 -8.3239922715284E-02
8  7.0000000000000E-02  6.4655440462013E-03 -9.6879285475298E-02
9  8.0000000000000E-02  6.8900948741818E-03 -1.1041410871592E-01
10  9.0000000000000E-02  7.1225974197702E-03 -1.2383187594563E-01
11  1.0000000000000E-01  7.1437091451355E-03 -1.3712100071180E-01
12  1.1000000000000E-01  6.9356676436050E-03 -1.5027092011627E-01
13  1.2000000000000E-01  6.4824304610823E-03 -1.6327218064520E-01
14  1.3000000000000E-01  5.7698042177431E-03 -1.7611651564416E-01
15  1.4000000000000E-01  4.7855622467211E-03 -1.8879691382437E-01
16  1.5000000000000E-01  3.5195500433016E-03 -2.0130767824606E-01
17  1.6000000000000E-01  1.9637778994138E-03 -2.1364447528761E-01
18  1.7000000000000E-01  1.1250018381717E-04 -2.2580437317576E-01
19  1.8000000000000E-01 -2.0377191826060E-03 -2.3778586972177E-01
20  1.9000000000000E-01 -4.4879554151075E-03 -2.4958890897966E-01
21  2.0000000000000E-01 -7.2368859811731E-03 -2.6121488661675E-01
22  2.1000000000000E-01 -1.0280768312990E-02 -2.7266664386166E-01
23  2.2000000000000E-01 -1.3613432187757E-02 -2.8394844997118E-01
24  2.3000000000000E-01 -1.7226286750272E-02 -2.9506597323373E-01
25  2.4000000000000E-01 -2.1108342055270E-02 -3.0602624060399E-01
26  2.5000000000000E-01 -2.5246244911310E-02 -3.1683758613913E-01
27  2.6000000000000E-01 -2.9624328713849E-02 -3.2750958848208E-01
28  2.7000000000000E-01 -3.4224676863505E-02 -3.3805299771075E-01
29  2.8000000000000E-01 -3.9027199276807E-02 -3.4847965194369E-01
30  2.9000000000000E-01 -4.4009721411760E-02 -3.5880238416153E-01
31  3.0000000000000E-01 -4.9148085149764E-02 -3.6903491976988E-01
32  3.1000000000000E-01 -5.4416260799536E-02 -3.7919176549193E-01
33  3.2000000000000E-01 -5.9786469418249E-02 -3.8928809023813E-01
34  3.3000000000000E-01 -6.5229314580448E-02 -3.9933959865515E-01
35  3.4000000000000E-01 -7.0713922667157E-02 -4.0936239810681E-01
36  3.5000000000000E-01 -7.6208090696313E-02 -4.1937285988507E-01
37  3.6000000000000E-01 -8.1678440671495E-02 -4.2938747548976E-01
38  3.7000000000000E-01 -8.7090579389423E-02 -4.3942270885086E-01
39  3.8000000000000E-01 -9.2409262618078E-02 -4.4949484539635E-01
40  3.9000000000000E-01 -9.7598562536822E-02 -4.5961983889265E-01
41  4.0000000000000E-01 -1.0262203731758E-01 -4.6981315700229E-01
42  4.1000000000000E-01 -1.0744290172256E-01 -4.8008962651505E-01
43  4.2000000000000E-01 -1.1202419759853E-01 -4.9046327921480E-01
44  4.3000000000000E-01 -1.1632896316126E-01 -5.0094719934315E-01
45  4.4000000000000E-01 -1.2032039998516E-01 -5.1155337361503E-01
46  4.5000000000000E-01 -1.2396203664368E-01 -5.2229254472819E-01
47  4.6000000000000E-01 -1.2721788798400E-01 -5.3317406929020E-01
48  4.7000000000000E-01 -1.3005260906620E-01 -5.4420578106190E-01
49  4.8000000000000E-01 -1.3243164285096E-01 -5.5539386038658E-01
50  4.9000000000000E-01 -1.3432136078111E-01 -5.6674271063823E-01
51  5.0000000000000E-01 -1.3568919547085E-01 -5.7825484248206E-01
52  5.1000000000000E-01 -1.3650376479089E-01 -5.8993076669500E-01
53  5.2000000000000E-01 -1.3673498671854E-01 -6.0176889624393E-01
54  5.3000000000000E-01 -1.3635418440791E-01 -6.1376545826547E-01
55  5.4000000000000E-01 -1.3533418102568E-01 -6.2591441653378E-01
56  5.5000000000000E-01 -1.3364938399325E-01 -6.3820740494137E-01
57  5.6000000000000E-01 -1.3127585837358E-01 -6.5063367245477E-01
58  5.7000000000000E-01 -1.2819138924238E-01 -6.6318003994020E-01
59  5.8000000000000E-01 -1.2437553298506E-01 -6.7583086918729E-01
60  5.9000000000000E-01 -1.1980965756514E-01 -6.8856804438881E-01
61  6.0000000000000E-01 -1.1447697191268E-01 -7.0137096626492E-01
62  6.1000000000000E-01 -1.0836254468466E-01 -7.1421655895028E-01
63  6.2000000000000E-01 -1.0145331275032E-01 -7.2707928969165E-01
64  6.3000000000000E-01 -9.3738079853022E-02 -7.3993120133558E-01
65  6.4000000000000E-01 -8.5207505995850E-02 -7.5274195751688E-01
66  6.5000000000000E-01 -7.5854088189051E-02 -7.6547890039331E-01
67  6.6000000000000E-01 -6.5672133282984E-02 -7.7810712070834E-01
68  6.7000000000000E-01 -5.4657723690548E-02 -7.9058953990287E-01
69  6.8000000000000E-01 -4.2808676875655E-02 -8.0288700393956E-01
70  6.9000000000000E-01 -3.0124499549215E-02 -8.1495838845037E-01
71  7.0000000000000E-01 -1.6606337571482E-02 -8.2676071476751E-01
72  7.1000000000000E-01 -2.2569226063192E-03 -8.3824927635432E-01
73  7.2000000000000E-01  1.2919483389100E-02 -8.4937777511173E-01
74  7.3000000000000E-01  2.8917144728846E-02 -8.6009846700167E-01
75  7.4000000000000E-01  4.5728908490850E-02 -8.7036231639897E-01
76  7.5000000000000E-01  6.3346259807179E-02 -8.8011915855965E-01
77  7.6000000000000E-01  8.1759374829250E-02 -8.8931786957489E-01
78  7.7000000000000E-01  1.0095717026588E-01 -8.9790654316770E-01
79  7.8000000000000E-01  1.2092734842407E-01 -9.0583267368185E-01
80  7.9000000000000E-01  1.4165643672882E-01 -9.1304334461176E-01
81  8.0000000000000E-01  1.6312982075604E-01 -9.1948542202559E-01
82  8.1000000000000E-01  1.8533176988398E-01 -9.2510575224336E-01
83  8.2000000000000E-01  2.0824545475231E-01 -9.2985136314555E-01
84  8.3000000000000E-01  2.3185295581378E-01 -9.3366966850656E-01
85  8.4000000000000E-01  2.5613526237156E-01 -9.3650867476976E-01
86  8.5000000000000E-01  2.8107226161402E-01 -9.3831718970667E-01
87  8.6000000000000E-01  3.0664271729004E-01 -9.3904503243281E-01
88  8.7000000000000E-01  3.3282423780576E-01 -9.3864324428224E-01
89  8.8000000000000E-01  3.5959323367503E-01 -9.3706430007729E-01
90  8.9000000000000E-01  3.8692486441116E-01 -9.3426231936213E-01
91  9.0000000000000E-01  4.1479297511229E-01 -9.3019327720232E-01
92  9.1000000000000E-01  4.4317002316298E-01 -9.2481521418554E-01
93  9.2000000000000E-01  4.7202699564719E-01 -9.1808844528723E-01
94  9.3000000000000E-01  5.0133331824604E-01 -9.0997576729334E-01
95  9.4000000000000E-01  5.3105675657179E-01 -9.0044266449548E-01
96  9.5000000000000E-01  5.6116331106580E-01 -8.8945751239081E-01
97  9.6000000000000E-01  5.9161710676654E-01 -8.7699177913290E-01
98  9.7000000000000E-01  6.2238027942182E-01 -8.6302022448256E-01
99  9.8000000000000E-01  6.5341285958938E-01 -8.4752109600762E-01
100  9.9000000000000E-01  6.8467265652314E-01 -8.3047632226488E-01
101  1.0000000000000E+00  7.1611514379540E-01 -8.1187170267956E-01
102  1.0100000000000E+00  7.4769334873738E-01 -7.9169709380162E-01
103  1.0200000000000E+00  7.7935774790437E-01 -7.6994659157525E-01
104  1.0300000000000E+00  8.1105617088016E-01 -7.4661870920336E-01
105  1.0400000000000E+00  8.4273371481846E-01 -7.2171655011565E-01
106  1.0500000000000E+00  8.7433267219336E-01 -6.9524797547168E-01
107  1.0600000000000E+00  9.0579247427340E-01 -6.6722576553168E-01
108  1.0700000000000E+00  9.3704965285701E-01 -6.3766777412059E-01
109  1.0800000000000E+00  9.6803782280549E-01 -6.0659707528923E-01
110  1.0900000000000E+00  9.9868768787810E-01 -5.7404210114230E-01
111  1.1000000000000E+00  1.0289270723148E+00 -5.4003676965607E-01
112  1.1100000000000E+00  1.0586809805241E+00 -5.0462060115227E-01
113  1.1200000000000E+00  1.0878716871108E+00 -4.6783882192694E-01
114  1.1300000000000E+00  1.1164188593268E+00 -4.2974245335771E-01
115  1.1400000000000E+00  1.1442397138403E+00 -3.9038838463176E-01
116  1.1500000000000E+00  1.1712492094987E+00 -3.4983942705072E-01
117  1.1600000000000E+00  1.1973602775052E+00 -3.0816434768226E-01
118  1.1700000000000E+00  1.2224840901370E+00 -2.6543787993997E-01
119  1.1800000000000E+00  1.2465303688146E+00 -2.2174070849844E-01
120  1.1900000000000E+00  1.2694077319664E+00 -1.7715942577276E-01
121  1.2000000000000E+00  1.2910240827441E+00 -1.3178645703827E-01
122  1.2100000000000E+00  1.3112870362222E+00 -8.5719951125750E-02
123  1.2200000000000E+00  1.3301043852568E+00 -3.9063633512184E-02
124  1.2300000000000E+00  1.3473846036926E+00  8.0733814605049E-03
125  1.2400000000000E+00  1.3630373851017E+00  5.5576822551499E-02
126  1.2500000000000E+00  1.3769742146932E+00  1.0332754109537E-01
127  1.2600000000000E+00  1.3891089714744E+00  1.5120184126272E-01
128  1.2700000000000E+00  1.3993585571723E+00  1.9907186427645E-01
129  1.2800000000000E+00  1.4076435478173E+00  2.4680602959008E-01
130  1.2900000000000E+00  1.4138888632962E+00  2.9426953577775E-01
131  1.3000000000000E+00  1.4180244495572E+00  3.4132492355390E-01
132  1.3100000000000E+00  1.4199859675377E+00  3.8783270290342E-01
133  1.3200000000000E+00  1.4197154822650E+00  4.3365204576333E-01
134  1.3300000000000E+00  1.4171621449752E+00  4.7864154502559E-01
135  1.3400000000000E+00  1.4122828604925E+00  5.2266003983512E-01
136  1.3500000000000E+00  1.4050429315393E+00  5.6556750621082E-01
137  1.3600000000000E+00  1.3954166710930E+00  6.0722601090249E-01
138  1.3700000000000E+00  1.3833879733843E+00  6.4750072511532E-01
139  1.3800000000000E+00  1.3689508336558E+00  6.8626099324791E-01
140  1.3900000000000E+00  1.3521098063653E+00  7.2338145010902E-01
141  1.4000000000000E+00  1.3328803911452E+00  7.5874317815563E-01
142  1.4100000000000E+00  1.3112893355186E+00  7.9223489413522E-01
143  1.4200000000000E+00  1.2873748431394E+00  8.2375415209300E-01
144  1.4300000000000E+00  1.2611866761718E+00  8.5320854698706E-01
145  1.4400000000000E+00  1.2327861403694E+00  8.8051690015505E-01
146  1.4500000000000E+00  1.2022459414704E+00  9.0561040451327E-01
147  1.4600000000000E+00  1.1696499016861E+00  9.2843370368995E-01
148  1.4700000000000E+00  1.1350925253706E+00  9.4894587521794E-01
149  1.4800000000000E+00  1.0986784033896E+00  9.6712128345195E-01
150  1.4900000000000E+00  1.0605214463239E+00  9.8295026296393E-01
151  1.5000000000000E+00  1.0207439373980E+00  9.9643958784093E-01
152  1.5100000000000E+00  9.7947539699831E-01  1.0076126764613E+00
153  1.5200000000000E+00  9.3685125179777E-01  1.0165094749814E+00
154  1.5300000000000E+00  8.9301130289952E-01  1.0231859558693E+00
155  1.5400000000000E+00  8.4809798902042E-01  1.0277131603598E+00
156  1.5500000000000E+00  8.0225444263026E-01  1.0301757056057E+00
157  1.5600000000000E+00  7.5562233910633E-01  1.0306696685803E+00
158  1.5700000000000E+00  7.0833954143010E-01  1.0292997493536E+00
159  1.5800000000000E+00  6.6053754571930E-01  1.0261756062268E+00
160  1.5900000000000E+00  6.1233873601402E-01  1.0214072442940E+00
161  1.6000000000000E+00  5.6385345911086E-01  1.0150993254153E+00
162  1.6100000000000E+00  5.1517693321174E-01  1.0073442522458E+00
163  1.6200000000000E+00  4.6638610424555E-01  9.9821403426111E-01
164  1.6300000000000E+00  4.1753591307685E-01  9.8774981813338E-01
165  1.6400000000000E+00  3.6866063972277E-01  9.7595831325442E-01
166  1.6500000000000E+00  3.1979409108455E-01  9.6284060912627E-01
167  1.6600000000000E+00  2.7098667252473E-01  9.4842130910072E-01
168  1.6700000000000E+00  2.2230618996723E-01  9.3275353890436E-01
169  1.6800000000000E+00  1.7383815396057E-01  9.1592373108510E-01
170  1.6900000000000E+00  1.2568533410010E-01  8.9805569456577E-01
171  1.7000000000000E+00  7.7966588833580E-02  8.7931376951196E-01
172  1.7100000000000E+00  3.0814882110554E-02  8.5990461949649E-01
173  1.7200000000000E+00 -1.5625577803057E-02  8.4007715972905E-01
174  1.7300000000000E+00 -6.1203090526373E-02  8.2012012208331E-01
175  1.7400000000000E+00 -1.0576305065019E-01  8.0035681350865E-01
176  1.7500000000000E+00 -1.4915322386765E-01  7.8113675866686E-01
177  1.7600000000000E+00 -1.9122946146331E-01  7.6282414358721E-01
178  1.7700000000000E+00 -2.3186149350941E-01  7.4578329554967E-01
179  1.7800000000000E+00 -2.7093834620935E-01  7.3036182437559E-01
180  1.7900000000000E+00 -3.0837287068319E-01  7.1687246317709E-01
181  1.8000000000000E+00 -3.4410487119074E-01  7.0557501473996E-01
182  1.8100000000000E+00 -3.7810240005644E-01  6.9666004455966E-01
183  1.8200000000000E+00 -4.1036094584916E-01  6.9023598330601E-01
184  1.8300000000000E+00 -4.4090046704351E-01  6.8632106643486E-01
185  1.8400000000000E+00 -4.6976048114923E-01  6.8484105064512E-01
186  1.8500000000000E+00 -4.9699366195862E-01  6.8563297708740E-01
187  1.8600000000000E+00 -5.2265857725644E-01  6.8845451918855E-01
188  1.8700000000000E+00 -5.4681228058049E-01  6.9299779946321E-01
189  1.8800000000000E+00 -5.6950344089874E-01  6.9890610640733E-01
190  1.8900000000000E+00 -5.9076656678134E-01  7.0579175878907E-01
191  1.9000000000000E+00 -6.1061768876639E-01  7.1325345834405E-01
192  1.9100000000000E+00 -6.2905165236984E-01  7.2089177679549E-01
193  1.9200000000000E+00 -6.4604097625993E-01  7.2832186262487E-01
194  1.9300000000000E+00 -6.6153608073969E-01  7.3518292509998E-01
195  1.9400000000000E+00 -6.7546660244341E-01  7.4114446395574E-01
196  1.9500000000000E+00 -6.8774347641624E-01  7.4590953225504E-01
197  1.9600000000000E+00 -6.9826147901604E-01  7.4921551848550E-01
198  1.9700000000000E+00 -7.0690196749931E-01  7.5083302308649E-01
199  1.9800000000000E+00 -7.1353561097700E-01  7.5056340379685E-01
200  1.9900000000000E+00 -7.1802496566285E-01  7.4823551155360E-01
201  2.0000000000000E+00 -7.2022680622858E-01  7.4370204304173E-01
202  2.0100000000000E+00 -7.1999416809508E-01  7.3683583847448E-01
203  2.0200000000000E+00 -7.1717809026910E-01  7.2752635658842E-01
204  2.0300000000000E+00 -7.1162907161957E-01  7.1567647493164E-01
205  2.0400000000000E+00 -7.0319826752809E-01  7.0119969553608E-01
206  2.0500000000000E+00 -6.9173846074522E-01  6.8401778692050E-01
207  2.0600000000000E+00 -6.7710484052904E-01  6.6405885398034E-01
208  2.0700000000000E+00 -6.5915563885735E-01  6.4125582117528E-01
209  2.0800000000000E+00 -6.3775260390696E-01  6.1554523890531E-01
210  2.0900000000000E+00 -6.1276143517044E-01  5.8686645760475E-01
211  2.1000000000000E+00 -5.8405220818179E-01  5.5516113849308E-01
212  2.1100000000000E+00 -5.5150147886933E-01  5.2037452507627E-01
213  2.1200000000000E+00 -5.1499002972461E-01  4.8245290602582E-01
214  2.1300000000000E+00 -4.7440152841241E-01  4.4134217897858E-01
215  2.1400000000000E+00 -4.2962468946393E-01  3.9698984057026E-01
216  2.1500000000000E+00 -3.8055322193865E-01  3.4934488453734E-01
217  2.1600000000000E+00 -3.2708603576502E-01  2.9835803262349E-01
218  2.1700000000000E+00 -2.6910157980855E-01  2.4395922577471E-01
219  2.1800000000000E+00 -2.0642715074617E-01  1.8603071834895E-01
220  2.1900000000000E+00 -1.4134735172784E-01  1.2661937642244E-01
221  2.2000000000000E+00 -6.1141102744922E-02  5.4525739806041E-02
222  2.2100000000000E+00  3.4365979023903E-03 -3.0615323717723E-03
223  2.2200000000000E+00  3.1290836366971E-03 -2.7853891963527E-03
224  2.23 -0.  0.
225  2.24  0. -0.
226  2.25  0. -0.
227  2.26  0. -0.
228  2.27  0.  0.
229  2.28  0.  0.
230  2.29  0.  0.
231  2.30  0.  0.
232  2.31  0.  0.
233  2.32  0.  0.
234  2.33  0.  0.
235  2.34  0.  0.
236  2.35  0.  0.
237  2.36  0.  0.
238  2.37  0.  0.
239  2.38  0.  0.
240  2.39  0.  0.
241  2.40  0.  0.
242  2.41  0.  0.
243  2.42  0.  0.
244  2.43  0.  0.
245  2.44  0.  0.
246  2.45  0.  0.
247  2.46  0.  0.
248  2.47  0.  0.
249  2.48  0.  0.
250  2.49  0.  0.
251  2.50  0.  0.
252  2.51  0.  0.
253  2.52  0.  0.
254  2.53  0.  0.
255  2.54  0.  0.
256  2.55  0.  0.
257  2.56  0.  0.
258  2.57  0.  0.
259  2.58  0.  0.
260  2.59  0.  0.
261  2.60  0.  0.
262  2.61  0.  0.
263  2.62  0.  0.
264  2.63  0.  0.
265  2.64  0.  0.
266  2.65  0.  0.
267  2.66  0.  0.
268  2.67  0.  0.
269  2.68  0.  0.
270  2.69  0.  0.
271  2.70  0.  0.
272  2.71  0.  0.
273  2.72  0.  0.
274  2.73  0.  0.
275  2.74  0.  0.
276  2.75  0.  0.
277  2.76  0.  0.
278  2.77  0.  0.
279  2.78  0.  0.
280  2.79  0.  0.
281  2.80  0.  0.
282  2.81  0.  0.
283  2.82  0.  0.
284  2.83  0.  0.
285  2.84  0.  0.
286  2.85  0.  0.
287  2.86  0.  0.
288  2.87  0.  0.
289  2.88  0.  0.
290  2.89  0.  0.
291  2.90  0.  0.
292  2.91  0.  0.
293  2.92  0.  0.
294  2.93  0.  0.
295  2.94  0.  0.
296  2.95  0.  0.
297  2.96  0.  0.
298  2.97  0.  0.
299  2.98  0.  0.
300  2.99  0.  0.
301  3.00  0.  0.
302  3.01  0.  0.
303  3.02  0.  0.
304  3.03  0.  0.
305  3.04  0.  0.
306  3.05  0.  0.
307  3.06  0.  0.
308  3.07  0.  0.
309  3.08  0.  0.
310  3.09  0.  0.
311  3.10  0.  0.
312  3.11  0.  0.
313  3.12  0.  0.
314  3.13  0.  0.
315  3.14  0.  0.
316  3.15  0.  0.
317  3.16  0.  0.
318  3.17  0.  0.
319  3.18  0.  0.
320  3.19  0.  0.
321  3.20  0.  0.
322  3.21  0.  0.
323  3.22  0.  0.
324  3.23  0.  0.
325  3.24  0.  0.
326  3.25  0.  0.
327  3.26  0.  0.
328  3.27  0.  0.
329  3.28  0.  0.
330  3.29  0.  0.
331  3.30  0.  0.
332  3.31  0.  0.
333  3.32  0.  0.
334  3.33  0.  0.
335  3.34  0.  0.
336  3.35  0.  0.
337  3.36  0.  0.
338  3.37  0.  0.
339  3.38  0.  0.
340  3.39  0.  0.
341  3.40  0.  0.
342  3.41  0.  0.
343  3.42  0.  0.
344  3.43  0.  0.
345  3.44  0.  0.
346  3.45  0.  0.
347  3.46  0.  0.
348  3.47  0.  0.
349  3.48  0.  0.
350  3.49  0.  0.
351  3.50  0.  0.
352  3.51  0.  0.
353  3.52  0.  0.
354  3.53  0.  0.
355  3.54  0.  0.
356  3.55  0.  0.
357  3.56  0.  0.
358  3.57  0.  0.
359  3.58  0.  0.
360  3.59  0.  0.
361  3.60  0.  0.
362  3.61  0.  0.
363  3.62  0.  0.
364  3.63  0.  0.
365  3.64  0.  0.
366  3.65  0.  0.
367  3.66  0.  0.
368  3.67  0.  0.
369  3.68  0.  0.
370  3.69  0.  0.
371  3.70  0.  0.
372  3.71  0.  0.
373  3.72  0.  0.
374  3.73  0.  0.
375  3.74  0.  0.
376  3.75  0.  0.
377  3.76  0.  0.
378  3.77  0.  0.
379  3.78  0.  0.
380  3.79  0.  0.
381  3.80  0.  0.
382  3.81  0.  0.
383  3.82  0.  0.
384  3.83  0.  0.
385  3.84  0.  0.
386  3.85  0.  0.
387  3.86  0.  0.
388  3.87  0.  0.
389  3.88  0.  0.
390  3.89  0.  0.
391  3.90  0.  0.
392  3.91  0.  0.
393  3.92  0.  0.
394  3.93  0.  0.
395  3.94  0.  0.
396  3.95  0.  0.
397  3.96  0.  0.
398  3.97  0.  0.
399  3.98  0.  0.
400  3.99  0.  0.
401  4.00  0.  0.
402  4.01  0.  0.
403  4.02  0.  0.
404  4.03  0.  0.
405  4.04  0.  0.
406  4.05  0.  0.
407  4.06  0.  0.
408  4.07  0.  0.
409  4.08  0.  0.
410  4.09  0.  0.
411  4.10  0.  0.
412  4.11  0.  0.
413  4.12  0.  0.
414  4.13  0.  0.
415  4.14  0.  0.
416  4.15  0.  0.
417  4.16  0.  0.
418  4.17  0.  0.
419  4.18  0.  0.
420  4.19  0.  0.
421  4.20  0.  0.
422  4.21  0.  0.
423  4.22  0.  0.
424  4.23  0.  0.
425  4.24  0.  0.
426  4.25  0.  0.
427  4.26  0.  0.
428  4.27  0.  0.
429  4.28  0.  0.
430  4.29  0.  0.
431  4.30  0.  0.
432  4.31  0.  0.
433  4.32  0.  0.
434  4.33  0.  0.
435  4.34  0.  0.
436  4.35  0.  0.
437  4.36  0.  0.
438  4.37  0.  0.
439  4.38  0.  0.
440  4.39  0.  0.
1                        -3.8307686110833E+00 -1.1198281942730E+00
1  0.0000000000000E+00  1.9636153814062E-11 -2.3598220599830E-11
2  1.0000000000000E-02  9.2648736524729E-04 -6.1708031110857E-04
3  2.0000000000000E-02  3.7036854907187E-03 -2.4658609750090E-03
4  3.0000000000000E-02  8.3248075666925E-03 -5.5389677521769E-03
5  4.0000000000000E-02  1.4778559237334E-02 -9.8241321274323E-03
6  5.0000000000000E-02  2.3049164056613E-02 -1.5304224094735E-02
7  6.0000000000000E-02  3.3116399057311E-02 -2.1957297973316E-02
8  7.0000000000000E-02  4.4955640364055E-02 -2.9756651172749E-02
9  8.0000000000000E-02  5.8537918761686E-02 -3.8670895800975E-02
10  9.0000000000000E-02  7.3829985110954E-02 -4.8664042985931E-02
11  1.0000000000000E-01  9.0794385484288E-02 -5.9695599758162E-02
12  1.1000000000000E-01  1.0938954587541E-01 -7.1720678318504E-02
13  1.2000000000000E-01  1.2956986631781E-01 -8.4690117491841E-02
14  1.3000000000000E-01  1.5128582422870E-01 -9.8550616144995E-02
15  1.4000000000000E-01  1.7448408677674E-01 -1.1324487832395E-01
16  1.5000000000000E-01  1.9910763205431E-01 -1.2871176984290E-01
17  1.6000000000000E-01  2.2509587881725E-01 -1.4488648603517E-01
18  1.7000000000000E-01  2.5238482453833E-01 -1.6170073035371E-01
19  1.8000000000000E-01  2.8090719150373E-01 -1.7908290348676E-01
20  1.9000000000000E-01  3.1059258066571E-01 -1.9695830263229E-01
21  2.0000000000000E-01  3.4136763294896E-01 -2.1524933055340E-01
22  2.1000000000000E-01  3.7315619769275E-01 -2.3387571401501E-01
23  2.2000000000000E-01  4.0587950789617E-01 -2.5275473118158E-01
24  2.3000000000000E-01  4.3945636191946E-01 -2.7180144753403E-01
25  2.4000000000000E-01  4.7380331128094E-01 -2.9092895984409E-01
26  2.5000000000000E-01  5.0883485417540E-01 -3.1004864772339E-01
27  2.6000000000000E-01  5.4446363432749E-01 -3.2907043224518E-01
28  2.7000000000000E-01  5.8060064478153E-01 -3.4790304111637E-01
29  2.8000000000000E-01  6.1715543621734E-01 -3.6645427985872E-01
30  2.9000000000000E-01  6.5403632937132E-01 -3.8463130843873E-01
31  3.0000000000000E-01  6.9115063113099E-01 -4.0234092276755E-01
32  3.1000000000000E-01  7.2840485386216E-01 -4.1948984047360E-01
33  3.2000000000000E-01  7.6570493751812E-01 -4.3598499033346E-01
34  3.3000000000000E-01  8.0295647407221E-01 -4.5173380472868E-01
35  3.4000000000000E-01  8.4006493380695E-01 -4.6664451447984E-01
36  3.5000000000000E-01  8.7693589298567E-01 -4.8062644539249E-01
37  3.6000000000000E-01  9.1347526242597E-01 -4.9359031583399E-01
38  3.7000000000000E-01  9.4958951648810E-01 -5.0544853464487E-01
39  3.8000000000000E-01  9.8518592198622E-01 -5.1611549867381E-01
40  3.9000000000000E-01  1.0201727665253E+00 -5.2550788921091E-01
41  4.0000000000000E-01  1.0544595857628E+00 -5.3354496658092E-01
42  4.1000000000000E-01  1.0879573890896E+00 -5.4014886214498E-01
43  4.2000000000000E-01  1.1205788832243E+00 -5.4524486694752E-01
44  4.3000000000000E-01  1.1522386932085E+00 -5.4876171623395E-01
45  4.4000000000000E-01  1.1828535802935E+00 -5.5063186905386E-01
46  4.5000000000000E-01  1.2123426562062E+00 -5.5079178215546E-01
47  4.6000000000000E-01  1.2406275932796E+00 -5.4918217736804E-01
48  4.7000000000000E-01  1.2676328299382E+00 -5.4574830166193E-01
49  4.8000000000000E-01  1.2932857710249E+00 -5.4044017906866E-01
50  4.9000000000000E-01  1.3175169824627E+00 -5.3321285363899E-01
51  5.0000000000000E-01  1.3402603797425E+00 -5.2402662261237E-01
52  5.1000000000000E-01  1.3614534097346E+00 -5.1284725896828E-01
53  5.2000000000000E-01  1.3810372253265E+00 -4.9964622252922E-01
54  5.3000000000000E-01  1.3989568523899E+00 -4.8440085878459E-01
55  5.4000000000000E-01  1.4151613485919E+00 -4.6709458460720E-01
56  5.5000000000000E-01  1.4296039535671E+00 -4.4771706003712E-01
57  5.6000000000000E-01  1.4422422299778E+00 -4.2626434531344E-01
58  5.7000000000000E-01  1.4530381949971E+00 -4.0273904234170E-01
59  5.8000000000000E-01  1.4619584417595E+00 -3.7715041979410E-01
60  5.9000000000000E-01  1.4689742503343E+00 -3.4951452105181E-01
61  6.0000000000000E-01  1.4740616877895E+00 -3.1985425421223E-01
62  6.1000000000000E-01  1.4772016969250E+00 -2.8819946340112E-01
63  6.2000000000000E-01  1.4783801732716E+00 -2.5458698064878E-01
64  6.3000000000000E-01  1.4775880299634E+00 -2.1906065761129E-01
65  6.4000000000000E-01  1.4748212501125E+00 -1.8167137644353E-01
66  6.5000000000000E-01  1.4700809263284E+00 -1.4247703915837E-01
67  6.6000000000000E-01  1.4633732870490E+00 -1.0154253483853E-01
68  6.7000000000000E-01  1.4547097093671E+00 -5.8939684102332E-02
69  6.8000000000000E-01  1.4441067180620E+00 -1.4747160263487E-02
70  6.9000000000000E-01  1.4315859705680E+00  3.0949613332474E-02
71  7.0000000000000E-01  1.4171742276400E+00  7.8058590266104E-02
72  7.1000000000000E-01  1.4009033095010E+00  1.2648125271647E-01
73  7.2000000000000E-01  1.3828100372904E+00  1.7611278821356E-01
74  7.3000000000000E-01  1.3629361596582E+00  2.2684229177662E-01
75  7.4000000000000E-01  1.3413282643893E+00  2.7855299368055E-01
76  7.5000000000000E-01  1.3180376749723E+00  3.3112251302374E-01
77  7.6000000000000E-01  1.2931203320680E+00  3.8442313719728E-01
78  7.7000000000000E-01  1.2666366598722E+00  4.3832212727689E-01
79  7.8000000000000E-01  1.2386514174057E+00  4.9268204927557E-01
80  7.9000000000000E-01  1.2092335348127E+00  5.4736113110603E-01
81  8.0000000000000E-01  1.1784559347901E+00  6.0221364500824E-01
82  8.1000000000000E-01  1.1463953393222E+00  6.5709031509807E-01
83  8.2000000000000E-01  1.1131320619407E+00  7.1183874958870E-01
84  8.3000000000000E-01  1.0787497857862E+00  7.6630389712649E-01
85  8.4000000000000E-01  1.0433353277985E+00  8.2032852656812E-01
86  8.5000000000000E-01  1.0069783894201E+00  8.7375372940542E-01
87  8.6000000000000E-01  9.6977129425555E-01  9.2641944391905E-01
88  8.7000000000000E-01  9.3180871318775E-01  9.7816500001169E-01
89  8.8000000000000E-01  8.9318737751591E-01  1.0288296835363E+00
90  8.9000000000000E-01  8.5400578074083E-01  1.0782533187953E+00
91  9.0000000000000E-01  8.1436386968913E-01  1.1262768677416E+00
92  9.1000000000000E-01  7.7436272573398E-01  1.1727430442663E+00
93  9.2000000000000E-01  7.3410423693638E-01  1.2174969418027E+00
94  9.3000000000000E-01  6.9369076199970E-01  1.2603866723238E+00
95  9.4000000000000E-01  6.5322478699887E-01  1.3012640146526E+00
96  9.5000000000000E-01  6.1280857591487E-01  1.3399850698410E+00
97  9.6000000000000E-01  5.7254381607475E-01  1.3764109212166E+00
98  9.7000000000000E-01  5.3253125966670E-01  1.4104082965280E+00
99  9.8000000000000E-01  4.9287036256901E-01  1.4418502294624E+00
100  9.9000000000000E-01  4.5365892179944E-01  1.4706167176414E+00
101  1.0000000000000E+00  4.1499271295889E-01  1.4965953740446E+00
102  1.0100000000000E+00  3.7696512910855E-01  1.5196820686516E+00
103  1.0200000000000E+00  3.3966682258260E-01  1.5397815569362E+00
104  1.0300000000000E+00  3.0318535129972E-01  1.5568080917027E+00
105  1.0400000000000E+00  2.6760483119381E-01  1.5706860146072E+00
106  1.0500000000000E+00  2.3300559643822E-01  1.5813503235744E+00
107  1.0600000000000E+00  1.9946386918737E-01  1.5887472121939E+00
108  1.0700000000000E+00  1.6705144060423E-01  1.5928345770676E+00
109  1.0800000000000E+00  1.3583536498083E-01  1.5935824889756E+00
110  1.0900000000000E+00  1.0587766879187E-01  1.5909736236460E+00
111  1.1000000000000E+00  7.7235076546462E-02  1.5850036478409E+00
112  1.1100000000000E+00  4.9958755321081E-02  1.5756815564221E+00
113  1.1200000000000E+00  2.4094079864936E-02  1.5630299560345E+00
114  1.1300000000000E+00 -3.1957983163591E-04  1.5470852910354E+00
115  1.1400000000000E+00 -2.3249046626747E-02  1.5278980073271E+00
116  1.1500000000000E+00 -4.4667498118803E-02  1.5055326497969E+00
117  1.1600000000000E+00 -6.4554600520266E-02  1.4800678891573E+00
118  1.1700000000000E+00 -8.2896612742577E-02  1.4515964740994E+00
119  1.1800000000000E+00 -9.9686458984984E-02  1.4202251048292E+00
120  1.1900000000000E+00 -1.1492376819999E-01  1.3860742242649E+00
121  1.2000000000000E+00 -1.2861487890454E-01  1.3492777234161E+00
122  1.2100000000000E+00 -1.4077280792028E-01  1.3099825577663E+00
123  1.2200000000000E+00 -1.5141718176085E-01  1.2683482718349E+00
124  1.2300000000000E+00 -1.6057412953689E-01  1.2245464294987E+00
125  1.2400000000000E+00 -1.6827613642667E-01  1.1787599481321E+00
126  1.2500000000000E+00 -1.7456185695766E-01  1.1311823351576E+00
127  1.2600000000000E+00 -1.7947588756708E-01  1.0820168262099E+00
128  1.2700000000000E+00 -1.8306849815761E-01  1.0314754248014E+00
129  1.2800000000000E+00 -1.8539532263785E-01  9.7977784414026E-01
130  1.2900000000000E+00 -1.8651700873878E-01  9.2715035259909E-01
131  1.3000000000000E+00 -1.8649882772802E-01  8.7382452527616E-01
132  1.3100000000000E+00 -1.8541024500321E-01  8.2003590511789E-01
133  1.3200000000000E+00 -1.8332445293584E-01  7.6602257820496E-01
134  1.3300000000000E+00 -1.8031786776005E-01  7.1202366904263E-01
135  1.3400000000000E+00 -1.7646959275544E-01  6.5827776304011E-01
136  1.3500000000000E+00 -1.7186085045902E-01  6.0502126481946E-01
137  1.3600000000000E+00 -1.6657438716570E-01  5.5248670257806E-01
138  1.3700000000000E+00 -1.6069385353090E-01  5.0090099042704E-01
139  1.3800000000000E+00 -1.5430316568120E-01  4.5048366246164E-01
140  1.3900000000000E+00 -1.4748585186235E-01  4.0144509427637E-01
141  1.4000000000000E+00 -1.4032439031689E-01  3.5398472974504E-01
142  1.4100000000000E+00 -1.3289954477765E-01  3.0828933312526E-01
143  1.4200000000000E+00 -1.2528970469297E-01  2.6453128893341E-01
144  1.4300000000000E+00 -1.1757023806359E-01  2.2286697457838E-01
145  1.4400000000000E+00 -1.0981286556393E-01  1.8343523342104E-01
146  1.4500000000000E+00 -1.0208506545086E-01  1.4635597878484E-01
147  1.4600000000000E+00 -9.4449519617879E-02  1.1172896243960E-01
148  1.4700000000000E+00 -8.6963612037001E-02  7.9632744246596E-02
149  1.4800000000000E+00 -7.9678991741057E-02  5.0123902980775E-02
150  1.4900000000000E+00 -7.2641213432416E-02  2.3236531840344E-02
151  1.5000000000000E+00 -6.5889469755210E-02 -1.0179341947690E-03
152  1.5100000000000E+00 -5.9456430237429E-02 -2.2650508170503E-02
153  1.5200000000000E+00 -5.3368202891115E-02 -4.1694003155505E-02
154  1.5300000000000E+00 -4.7644435445620E-02 -5.8201887306973E-02
155  1.5400000000000E+00 -4.2298574180582E-02 -7.2246578569136E-02
156  1.5500000000000E+00 -3.7338299313070E-02 -8.3917111096084E-02
157  1.5600000000000E+00 -3.2766156872190E-02 -9.3316100861210E-02
158  1.5700000000000E+00 -2.8580407957230E-02 -1.0055593313350E-01
159  1.5800000000000E+00 -2.4776117215273E-02 -1.0575408957027E-01
160  1.5900000000000E+00 -2.1346503282450E-02 -1.0902752760431E-01
161  1.6000000000000E+00 -1.8284575305147E-02 -1.1048601740980E-01
162  1.6100000000000E+00 -1.5585081198466E-02 -1.1022433353652E-01
163  1.6200000000000E+00 -1.3246748492067E-02 -1.0831338846547E-01