Nd    ONCVPSP-4.0.1  r_core=   2.00095   1.60366   1.90745   1.60366
60.0000     14.0000      230112    zatom,zion,pspd
8      11   3     4   600     0    pspcod,pspxc,lmax,lloc,mmax,r2well
5.99000000  4.00000000  0.00000000    rchrg fchrg qchrg
2     2     2     2     0    nproj
1     1           extension_switch
0                         7.2483657312543E+00  4.5970193569070E-01
1  0.0000000000000E+00  6.7855832064367E-11 -3.0857152596986E-10
2  1.0000000000000E-02  3.5927183305607E-02 -3.2848800646455E-03
3  2.0000000000000E-02  7.1845980792818E-02 -6.6195239567319E-03
4  3.0000000000000E-02  1.0774782032080E-01 -1.0052977715411E-02
5  4.0000000000000E-02  1.4362375899707E-01 -1.3632859511149E-02
6  5.0000000000000E-02  1.7946430251742E-01 -1.7404664901991E-02
7  6.0000000000000E-02  2.1525923011627E-01 -2.1411094897856E-02
8  7.0000000000000E-02  2.5099742691725E-01 -2.5691414069936E-02
9  8.0000000000000E-02  2.8666672540604E-01 -3.0280845633704E-02
10  9.0000000000000E-02  3.2225375766379E-01 -3.5210010053976E-02
11  1.0000000000000E-01  3.5774381990066E-01 -4.0504413272769E-02
12  1.1000000000000E-01  3.9312075071643E-01 -4.6183990150051E-02
13  1.2000000000000E-01  4.2836682438914E-01 -5.2262708138473E-02
14  1.3000000000000E-01  4.6346266035497E-01 -5.8748235592002E-02
15  1.4000000000000E-01  4.9838714989419E-01 -6.5641678440969E-02
16  1.5000000000000E-01  5.3311740088048E-01 -7.2937388258945E-02
17  1.6000000000000E-01  5.6762870128508E-01 -8.0622844007676E-02
18  1.7000000000000E-01  6.0189450195601E-01 -8.8678608981659E-02
19  1.8000000000000E-01  6.3588641901564E-01 -9.7078363692373E-02
20  1.9000000000000E-01  6.6957425604064E-01 -1.0578901464101E-01
21  2.0000000000000E-01  7.0292604600749E-01 -1.1477087813587E-01
22  2.1000000000000E-01  7.3590811280579E-01 -1.2397793752457E-01
23  2.2000000000000E-01  7.6848515194328E-01 -1.3335817144027E-01
24  2.3000000000000E-01  8.0062032989091E-01 -1.4285394991163E-01
25  2.4000000000000E-01  8.3227540134696E-01 -1.5240249446812E-01
26  2.5000000000000E-01  8.6341084353555E-01 -1.6193639769122E-01
27  2.6000000000000E-01  8.9398600650044E-01 -1.7138419702556E-01
28  2.7000000000000E-01  9.2395927820984E-01 -1.8067099707954E-01
29  2.8000000000000E-01  9.5328826315372E-01 -1.8971913411714E-01
30  2.9000000000000E-01  9.8192997299388E-01 -1.9844887597884E-01
31  3.0000000000000E-01  1.0098410277181E+00 -2.0677915027358E-01
32  3.1000000000000E-01  1.0369778656567E+00 -2.1462829335963E-01
33  3.2000000000000E-01  1.0632969606397E+00 -2.2191481238579E-01
34  3.3000000000000E-01  1.0887550445127E+00 -2.2855815249531E-01
35  3.4000000000000E-01  1.1133093331801E+00 -2.3447946120819E-01
36  3.5000000000000E-01  1.1369177543191E+00 -2.3960234199272E-01
37  3.6000000000000E-01  1.1595391748922E+00 -2.4385358911544E-01
38  3.7000000000000E-01  1.1811336265930E+00 -2.4716389601908E-01
39  3.8000000000000E-01  1.2016625273845E+00 -2.4946852972057E-01
40  3.9000000000000E-01  1.2210888973232E+00 -2.5070796404176E-01
41  4.0000000000000E-01  1.2393775669241E+00 -2.5082846488389E-01
42  4.1000000000000E-01  1.2564953763893E+00 -2.4978262122597E-01
43  4.2000000000000E-01  1.2724113641111E+00 -2.4752981606659E-01
44  4.3000000000000E-01  1.2870969429621E+00 -2.4403663212957E-01
45  4.4000000000000E-01  1.3005260629987E+00 -2.3927718781208E-01
46  4.5000000000000E-01  1.3126753593307E+00 -2.3323339956362E-01
47  4.6000000000000E-01  1.3235242840471E+00 -2.2589516763635E-01
48  4.7000000000000E-01  1.3330552212355E+00 -2.1726048293628E-01
49  4.8000000000000E-01  1.3412535842867E+00 -2.0733545352131E-01
50  4.9000000000000E-01  1.3481078948371E+00 -1.9613425012845E-01
51  5.0000000000000E-01  1.3536098428675E+00 -1.8367897096029E-01
52  5.1000000000000E-01  1.3577543276475E+00 -1.6999942681013E-01
53  5.2000000000000E-01  1.3605394793826E+00 -1.5513284844871E-01
54  5.3000000000000E-01  1.3619666615943E+00 -1.3912351902349E-01
55  5.4000000000000E-01  1.3620404544307E+00 -1.2202233502465E-01
56  5.5000000000000E-01  1.3607686192693E+00 -1.0388630014368E-01
57  5.6000000000000E-01  1.3581620451370E+00 -8.4777957080434E-02
58  5.7000000000000E-01  1.3542346776208E+00 -6.4764763036003E-02
59  5.8000000000000E-01  1.3490034310920E+00 -4.3918415253705E-02
60  5.9000000000000E-01  1.3424880851994E+00 -2.2314133533573E-02
61  6.0000000000000E-01  1.3347111667129E+00 -2.9907137534141E-05
62  6.1000000000000E-01  1.3256978179112E+00  2.2854286078511E-02
63  6.2000000000000E-01  1.3154756528075E+00  4.6257280131287E-02
64  6.3000000000000E-01  1.3040746025910E+00  7.0097532546011E-02
65  6.4000000000000E-01  1.2915267517356E+00  9.4293938563769E-02
66  6.5000000000000E-01  1.2778661662811E+00  1.1876663924232E-01
67  6.6000000000000E-01  1.2631287158334E+00  1.4343781478382E-01
68  6.7000000000000E-01  1.2473518908540E+00  1.6823245452182E-01
69  6.8000000000000E-01  1.2305746168190E+00  1.9307909519153E-01
70  6.9000000000000E-01  1.2128370668196E+00  2.1791051938385E-01
71  7.0000000000000E-01  1.1941804741529E+00  2.4266440644755E-01
72  7.1000000000000E-01  1.1746469464175E+00  2.6728392854791E-01
73  7.2000000000000E-01  1.1542792825726E+00  2.9171828511212E-01
74  7.3000000000000E-01  1.1331207943574E+00  3.1592316948519E-01
75  7.4000000000000E-01  1.1112151333875E+00  3.3986116227861E-01
76  7.5000000000000E-01  1.0886061251583E+00  3.6350204661281E-01
77  7.6000000000000E-01  1.0653376110828E+00  3.8682304122246E-01
78  7.7000000000000E-01  1.0414532995852E+00  4.0980894820690E-01
79  7.8000000000000E-01  1.0169966271549E+00  4.3245221305470E-01
80  7.9000000000000E-01  9.9201063014232E-01  4.5475289544395E-01
81  8.0000000000000E-01  9.6653782795210E-01  4.7671855021032E-01
82  8.1000000000000E-01  9.4062011815924E-01  4.9836401877053E-01
83  8.2000000000000E-01  9.1429868394107E-01  5.1971113218525E-01
84  8.3000000000000E-01  8.8761391408756E-01  5.4078832792773E-01
85  8.4000000000000E-01  8.6060533572115E-01  5.6163018328915E-01
86  8.5000000000000E-01  8.3331155973071E-01  5.8227686918483E-01
87  8.6000000000000E-01  8.0577023880053E-01  6.0277352892360E-01
88  8.7000000000000E-01  7.7801803779779E-01  6.2316958725303E-01
89  8.8000000000000E-01  7.5009061617111E-01  6.4351799569401E-01
90  8.9000000000000E-01  7.2202262190894E-01  6.6387442081748E-01
91  9.0000000000000E-01  6.9384769651233E-01  6.8429638269308E-01
92  9.1000000000000E-01  6.6559849035072E-01  7.0484235124547E-01
93  9.2000000000000E-01  6.3730668769372E-01  7.2557080868870E-01
94  9.3000000000000E-01  6.0900304064662E-01  7.4653928656510E-01
95  9.4000000000000E-01  5.8071741116217E-01  7.6780338619662E-01
96  9.5000000000000E-01  5.5247882025637E-01  7.8941579155622E-01
97  9.6000000000000E-01  5.2431550352228E-01  8.1142528368986E-01
98  9.7000000000000E-01  4.9625497201080E-01  8.3387576586527E-01
99  9.8000000000000E-01  4.6832407753304E-01  8.5680530859252E-01
100  9.9000000000000E-01  4.4054908143240E-01  8.8024522356099E-01
101  1.0000000000000E+00  4.1295572587660E-01  9.0421917536602E-01
102  1.0100000000000E+00  3.8556930672839E-01  9.2874233966600E-01
103  1.0200000000000E+00  3.5841474706901E-01  9.5382061611965E-01
104  1.0300000000000E+00  3.3151667046760E-01  9.7944990410987E-01
105  1.0400000000000E+00  3.0489947311344E-01  1.0056154488733E+00
106  1.0500000000000E+00  2.7858739395327E-01  1.0322912652272E+00
107  1.0600000000000E+00  2.5260458200296E-01  1.0594396456285E+00
108  1.0700000000000E+00  2.2697516002917E-01  1.0870107588154E+00
109  1.0800000000000E+00  2.0172328382224E-01  1.1149423447825E+00
110  1.0900000000000E+00  1.7687319630443E-01  1.1431595113296E+00
111  1.1000000000000E+00  1.5244927573721E-01  1.1715746369038E+00
112  1.1100000000000E+00  1.2847607730683E-01  1.2000873839414E+00
113  1.1200000000000E+00  1.0497836737783E-01  1.2285848264001E+00
114  1.1300000000000E+00  8.1981149709684E-02  1.2569416946683E+00
115  1.1400000000000E+00  5.9509682931621E-02  1.2850207405429E+00
116  1.1500000000000E+00  3.7589488565107E-02  1.3126732244837E+00
117  1.1600000000000E+00  1.6246348873216E-02  1.3397395268778E+00
118  1.1700000000000E+00 -4.4937061985075E-03  1.3660498845848E+00
119  1.1800000000000E+00 -2.4604423743069E-02  1.3914252535715E+00
120  1.1900000000000E+00 -4.4059365047796E-02  1.4156782979837E+00
121  1.2000000000000E+00 -6.2831955977372E-02  1.4386145055375E+00
122  1.2100000000000E+00 -8.0895551394107E-02  1.4600334286189E+00
123  1.2200000000000E+00 -9.8223514438143E-02  1.4797300499726E+00
124  1.2300000000000E+00 -1.1478931149526E-01  1.4974962712973E+00
125  1.2400000000000E+00 -1.3056662367403E-01  1.5131225224519E+00
126  1.2500000000000E+00 -1.4552947559330E-01  1.5263994882881E+00
127  1.2600000000000E+00 -1.5965238224130E-01  1.5371199493375E+00
128  1.2700000000000E+00 -1.7291051460491E-01  1.5450807316853E+00
129  1.2800000000000E+00 -1.8527988467637E-01  1.5500847603240E+00
130  1.2900000000000E+00 -1.9673755031994E-01  1.5519432090763E+00
131  1.3000000000000E+00 -2.0726184031868E-01  1.5504777387944E+00
132  1.3100000000000E+00 -2.1683259971242E-01  1.5455228139256E+00
133  1.3200000000000E+00 -2.2543145527956E-01  1.5369280856830E+00
134  1.3300000000000E+00 -2.3304210070063E-01  1.5245608279270E+00
135  1.3400000000000E+00 -2.3965060056080E-01  1.5083084094159E+00
136  1.3500000000000E+00 -2.4524571189942E-01  1.4880807832937E+00
137  1.3600000000000E+00 -2.4981922148616E-01  1.4638129715056E+00
138  1.3700000000000E+00 -2.5336629639395E-01  1.4354675182646E+00
139  1.3800000000000E+00 -2.5588584473127E-01  1.4030368826251E+00
140  1.3900000000000E+00 -2.5738088259457E-01  1.3665457357050E+00
141  1.4000000000000E+00 -2.5785890238877E-01  1.3260531230185E+00
142  1.4100000000000E+00 -2.5733223663829E-01  1.2816544467538E+00
143  1.4200000000000E+00 -2.5581841026028E-01  1.2334832165721E+00
144  1.4300000000000E+00 -2.5334047298776E-01  1.1817125105831E+00
145  1.4400000000000E+00 -2.4992730220944E-01  1.1265560805444E+00
146  1.4500000000000E+00 -2.4561386492099E-01  1.0682690269667E+00
147  1.4600000000000E+00 -2.4044142574842E-01  1.0071479606205E+00
148  1.4700000000000E+00 -2.3445768611707E-01  9.4353055698478E-01
149  1.4800000000000E+00 -2.2771683755141E-01  8.7779439919403E-01
150  1.4900000000000E+00 -2.2027950983913E-01  8.1035499323092E-01
151  1.5000000000000E+00 -2.1221259233053E-01  7.4166282622002E-01
152  1.5100000000000E+00 -2.0358890397747E-01  6.7219932474073E-01
153  1.5200000000000E+00 -1.9448668483067E-01  6.0247155501273E-01
154  1.5300000000000E+00 -1.8498887859435E-01  5.3300549053190E-01
155  1.5400000000000E+00 -1.7518217247993E-01  4.6433765522898E-01
156  1.5500000000000E+00 -1.6515575698519E-01  3.9700493137500E-01
157  1.5600000000000E+00 -1.5499976433182E-01  3.3153230115796E-01
158  1.5700000000000E+00 -1.4480334013295E-01  2.6841826915443E-01
159  1.5800000000000E+00 -1.3465229702425E-01  2.0811767796651E-01
160  1.5900000000000E+00 -1.2462629546150E-01  1.5102161759465E-01
161  1.6000000000000E+00 -1.1479556718065E-01  9.7434724139391E-02
162  1.6100000000000E+00 -1.0521678831628E-01  4.7546767202412E-02
163  1.6200000000000E+00 -9.5933733673924E-02  1.4461936505125E-03
164  1.6300000000000E+00 -8.6983696828303E-02 -4.0820050074015E-02
165  1.6400000000000E+00 -7.8399943041984E-02 -7.9224327593211E-02
166  1.6500000000000E+00 -7.0211388028924E-02 -1.1376060461255E-01
167  1.6600000000000E+00 -6.2442580906165E-02 -1.4444417813333E-01
168  1.6700000000000E+00 -5.5113670520161E-02 -1.7131168462470E-01
169  1.6800000000000E+00 -4.8240405449015E-02 -1.9442093498765E-01
170  1.6900000000000E+00 -4.1834168963275E-02 -2.1385056771484E-01
171  1.7000000000000E+00 -3.5902047797915E-02 -2.2969952979994E-01
172  1.7100000000000E+00 -3.0446934259325E-02 -2.4208638799520E-01
173  1.7200000000000E+00 -2.5467660939784E-02 -2.5114847420825E-01
174  1.7300000000000E+00 -2.0959166961446E-02 -2.5704087079929E-01
175  1.7400000000000E+00 -1.6912694430307E-02 -2.5993524269259E-01
176  1.7500000000000E+00 -1.3316013459881E-02 -2.6001852499148E-01
177  1.7600000000000E+00 -1.0153673894316E-02 -2.5749147591205E-01
178  1.7700000000000E+00 -7.4072815999386E-03 -2.5256710624093E-01
179  1.7800000000000E+00 -5.0557969452181E-03 -2.4546899786278E-01
180  1.7900000000000E+00 -3.0758529051099E-03 -2.3642952480765E-01
181  1.8000000000000E+00 -1.4420900477403E-03 -2.2568799118872E-01
182  1.8100000000000E+00 -1.2750535903782E-04 -2.1348870221965E-01
183  1.8200000000000E+00  8.9618787980221E-04 -2.0007898246170E-01
184  1.8300000000000E+00  1.6581925287552E-03 -1.8570715929971E-01
185  1.8400000000000E+00  2.1882561776824E-03 -1.7062053277716E-01
186  1.8500000000000E+00  2.5162974792801E-03 -1.5506333724753E-01
187  1.8600000000000E+00  2.6720356476318E-03 -1.3927472682065E-01
188  1.8700000000000E+00  2.6846270144296E-03 -1.2348679995560E-01
189  1.8800000000000E+00  2.5822910820729E-03 -1.0792260180246E-01
190  1.8900000000000E+00  2.3920226460955E-03 -9.2794475126321E-02
191  1.9000000000000E+00  2.1391450370914E-03 -7.8301856670067E-02
192  1.9100000000000E+00  1.8454158185563E-03 -6.4623386643522E-02
193  1.9200000000000E+00  1.5302011611737E-03 -5.1920902340136E-02
194  1.9300000000000E+00  1.2137031917336E-03 -4.0351651792476E-02
195  1.9400000000000E+00  9.1311137947380E-04 -3.0053282281716E-02
196  1.9500000000000E+00  6.4257650008440E-04 -2.1143364075733E-02
197  1.9600000000000E+00  4.1298415946295E-04 -1.3718217515829E-02
198  1.9700000000000E+00  2.3186736208134E-04 -7.8545189041424E-03
199  1.9800000000000E+00  1.0275498213590E-04 -3.5867877818422E-03
200  1.9900000000000E+00  2.7163014269503E-05 -9.8965004908372E-04
201  2.0000000000000E+00  7.8351756093599E-07 -3.0206039149340E-05
202  2.0100000000000E+00 -7.6479997848230E-07  2.9992726818967E-05
203  2.0200000000000E+00  4.2447221432288E-07 -1.5974914775363E-05
204  2.03 -0.  0.
205  2.04 -0. -0.
206  2.05  0.  0.
207  2.06  0.  0.
208  2.07  0.  0.
209  2.08  0.  0.
210  2.09  0.  0.
211  2.10  0.  0.
212  2.11  0.  0.
213  2.12  0.  0.
214  2.13  0.  0.
215  2.14  0.  0.
216  2.15  0.  0.
217  2.16  0.  0.
218  2.17  0.  0.
219  2.18  0.  0.
220  2.19  0.  0.
221  2.20  0.  0.
222  2.21  0.  0.
223  2.22  0.  0.
224  2.23  0.  0.
225  2.24  0.  0.
226  2.25  0.  0.
227  2.26  0.  0.
228  2.27  0.  0.
229  2.28  0.  0.
230  2.29  0.  0.
231  2.30  0.  0.
232  2.31  0.  0.
233  2.32  0.  0.
234  2.33  0.  0.
235  2.34  0.  0.
236  2.35  0.  0.
237  2.36  0.  0.
238  2.37  0.  0.
239  2.38  0.  0.
240  2.39  0.  0.
241  2.40  0.  0.
242  2.41  0.  0.
243  2.42  0.  0.
244  2.43  0.  0.
245  2.44  0.  0.
246  2.45  0.  0.
247  2.46  0.  0.
248  2.47  0.  0.
249  2.48  0.  0.
250  2.49  0.  0.
251  2.50  0.  0.
252  2.51  0.  0.
253  2.52  0.  0.
254  2.53  0.  0.
255  2.54  0.  0.
256  2.55  0.  0.
257  2.56  0.  0.
258  2.57  0.  0.
259  2.58  0.  0.
260  2.59  0.  0.
261  2.60  0.  0.
262  2.61  0.  0.
263  2.62  0.  0.
264  2.63  0.  0.
265  2.64  0.  0.
266  2.65  0.  0.
267  2.66  0.  0.
268  2.67  0.  0.
269  2.68  0.  0.
270  2.69  0.  0.
271  2.70  0.  0.
272  2.71  0.  0.
273  2.72  0.  0.
274  2.73  0.  0.
275  2.74  0.  0.
276  2.75  0.  0.
277  2.76  0.  0.
278  2.77  0.  0.
279  2.78  0.  0.
280  2.79  0.  0.
281  2.80  0.  0.
282  2.81  0.  0.
283  2.82  0.  0.
284  2.83  0.  0.
285  2.84  0.  0.
286  2.85  0.  0.
287  2.86  0.  0.
288  2.87  0.  0.
289  2.88  0.  0.
290  2.89  0.  0.
291  2.90  0.  0.
292  2.91  0.  0.
293  2.92  0.  0.
294  2.93  0.  0.
295  2.94  0.  0.
296  2.95  0.  0.
297  2.96  0.  0.
298  2.97  0.  0.
299  2.98  0.  0.
300  2.99  0.  0.
301  3.00  0.  0.
302  3.01  0.  0.
303  3.02  0.  0.
304  3.03  0.  0.
305  3.04  0.  0.
306  3.05  0.  0.
307  3.06  0.  0.
308  3.07  0.  0.
309  3.08  0.  0.
310  3.09  0.  0.
311  3.10  0.  0.
312  3.11  0.  0.
313  3.12  0.  0.
314  3.13  0.  0.
315  3.14  0.  0.
316  3.15  0.  0.
317  3.16  0.  0.
318  3.17  0.  0.
319  3.18  0.  0.
320  3.19  0.  0.
321  3.20  0.  0.
322  3.21  0.  0.
323  3.22  0.  0.
324  3.23  0.  0.
325  3.24  0.  0.
326  3.25  0.  0.
327  3.26  0.  0.
328  3.27  0.  0.
329  3.28  0.  0.
330  3.29  0.  0.
331  3.30  0.  0.
332  3.31  0.  0.
333  3.32  0.  0.
334  3.33  0.  0.
335  3.34  0.  0.
336  3.35  0.  0.
337  3.36  0.  0.
338  3.37  0.  0.
339  3.38  0.  0.
340  3.39  0.  0.
341  3.40  0.  0.
342  3.41  0.  0.
343  3.42  0.  0.
344  3.43  0.  0.
345  3.44  0.  0.
346  3.45  0.  0.
347  3.46  0.  0.
348  3.47  0.  0.
349  3.48  0.  0.
350  3.49  0.  0.
351  3.50  0.  0.
352  3.51  0.  0.
353  3.52  0.  0.
354  3.53  0.  0.
355  3.54  0.  0.
356  3.55  0.  0.
357  3.56  0.  0.
358  3.57  0.  0.
359  3.58  0.  0.
360  3.59  0.  0.
361  3.60  0.  0.
362  3.61  0.  0.
363  3.62  0.  0.
364  3.63  0.  0.
365  3.64  0.  0.
366  3.65  0.  0.
367  3.66  0.  0.
368  3.67  0.  0.
369  3.68  0.  0.
370  3.69  0.  0.
371  3.70  0.  0.
372  3.71  0.  0.
373  3.72  0.  0.
374  3.73  0.  0.
375  3.74  0.  0.
376  3.75  0.  0.
377  3.76  0.  0.
378  3.77  0.  0.
379  3.78  0.  0.
380  3.79  0.  0.
381  3.80  0.  0.
382  3.81  0.  0.
383  3.82  0.  0.
384  3.83  0.  0.
385  3.84  0.  0.
386  3.85  0.  0.
387  3.86  0.  0.
388  3.87  0.  0.
389  3.88  0.  0.
390  3.89  0.  0.
391  3.90  0.  0.
392  3.91  0.  0.
393  3.92  0.  0.
394  3.93  0.  0.
395  3.94  0.  0.
396  3.95  0.  0.
397  3.96  0.  0.
398  3.97  0.  0.
399  3.98  0.  0.
400  3.99  0.  0.
401  4.00  0.  0.
402  4.01  0.  0.
403  4.02  0.  0.
404  4.03  0.  0.
405  4.04  0.  0.
406  4.05  0.  0.
407  4.06  0.  0.
408  4.07  0.  0.
409  4.08  0.  0.
410  4.09  0.  0.
411  4.10  0.  0.
412  4.11  0.  0.
413  4.12  0.  0.
414  4.13  0.  0.
415  4.14  0.  0.
416  4.15  0.  0.
417  4.16  0.  0.
418  4.17  0.  0.
419  4.18  0.  0.
420  4.19  0.  0.
421  4.20  0.  0.
422  4.21  0.  0.
423  4.22  0.  0.
424  4.23  0.  0.
425  4.24  0.  0.
426  4.25  0.  0.
427  4.26  0.  0.
428  4.27  0.  0.
429  4.28  0.  0.
430  4.29  0.  0.
431  4.30  0.  0.
432  4.31  0.  0.
433  4.32  0.  0.
434  4.33  0.  0.
435  4.34  0.  0.
436  4.35  0.  0.
437  4.36  0.  0.
438  4.37  0.  0.
439  4.38  0.  0.
440  4.39  0.  0.
441  4.40  0.  0.
442  4.41  0.  0.
443  4.42  0.  0.
444  4.43  0.  0.
445  4.44  0.  0.
446  4.45  0.  0.
447  4.46  0.  0.
448  4.47  0.  0.
449  4.48  0.  0.
450  4.49  0.  0.
451  4.50  0.  0.
452  4.51  0.  0.
453  4.52  0.  0.
454  4.53  0.  0.
455  4.54  0.  0.
456  4.55  0.  0.
457  4.56  0.  0.
458  4.57  0.  0.
459  4.58  0.  0.
460  4.59  0.  0.
461  4.60  0.  0.
462  4.61  0.  0.
463  4.62  0.  0.
464  4.63  0.  0.
465  4.64  0.  0.
466  4.65  0.  0.
467  4.66  0.  0.
468  4.67  0.  0.
469  4.68  0.  0.
470  4.69  0.  0.
471  4.70  0.  0.
472  4.71  0.  0.
473  4.72  0.  0.
474  4.73  0.  0.
475  4.74  0.  0.
476  4.75  0.  0.
477  4.76  0.  0.
478  4.77  0.  0.
479  4.78  0.  0.
480  4.79  0.  0.
481  4.80  0.  0.
482  4.81  0.  0.
483  4.82  0.  0.
484  4.83  0.  0.
485  4.84  0.  0.
486  4.85  0.  0.
487  4.86  0.  0.
488  4.87  0.  0.
489  4.88  0.  0.
490  4.89  0.  0.
491  4.90  0.  0.
492  4.91  0.  0.
493  4.92  0.  0.
494  4.93  0.  0.
495  4.94  0.  0.
496  4.95  0.  0.
497  4.96  0.  0.
498  4.97  0.  0.
499  4.98  0.  0.
500  4.99  0.  0.
501  5.00  0.  0.
502  5.01  0.  0.
503  5.02  0.  0.
504  5.03  0.  0.
505  5.04  0.  0.
506  5.05  0.  0.
507  5.06  0.  0.
508  5.07  0.  0.
509  5.08  0.  0.
510  5.09  0.  0.
511  5.10  0.  0.
512  5.11  0.  0.
513  5.12  0.  0.
514  5.13  0.  0.
515  5.14  0.  0.
516  5.15  0.  0.
517  5.16  0.  0.
518  5.17  0.  0.
519  5.18  0.  0.
520  5.19  0.  0.
521  5.20  0.  0.
522  5.21  0.  0.
523  5.22  0.  0.
524  5.23  0.  0.
525  5.24  0.  0.
526  5.25  0.  0.
527  5.26  0.  0.
528  5.27  0.  0.
529  5.28  0.  0.
530  5.29  0.  0.
531  5.30  0.  0.
532  5.31  0.  0.
533  5.32  0.  0.
534  5.33  0.  0.
535  5.34  0.  0.
536  5.35  0.  0.
537  5.36  0.  0.
538  5.37  0.  0.
539  5.38  0.  0.
540  5.39  0.  0.
541  5.40  0.  0.
542  5.41  0.  0.
543  5.42  0.  0.
544  5.43  0.  0.
545  5.44  0.  0.
546  5.45  0.  0.
547  5.46  0.  0.
548  5.47  0.  0.
549  5.48  0.  0.
550  5.49  0.  0.
551  5.50  0.  0.
552  5.51  0.  0.
553  5.52  0.  0.
554  5.53  0.  0.
555  5.54  0.  0.
556  5.55  0.  0.
557  5.56  0.  0.
558  5.57  0.  0.
559  5.58  0.  0.
560  5.59  0.  0.
561  5.60  0.  0.
562  5.61  0.  0.
563  5.62  0.  0.
564  5.63  0.  0.
565  5.64  0.  0.
566  5.65  0.  0.
567  5.66  0.  0.
568  5.67  0.  0.
569  5.68  0.  0.
570  5.69  0.  0.
571  5.70  0.  0.
572  5.71  0.  0.
573  5.72  0.  0.
574  5.73  0.  0.
575  5.74  0.  0.
576  5.75  0.  0.
577  5.76  0.  0.
578  5.77  0.  0.
579  5.78  0.  0.
580  5.79  0.  0.
581  5.80  0.  0.
582  5.81  0.  0.
583  5.82  0.  0.
584  5.83  0.  0.
585  5.84  0.  0.
586  5.85  0.  0.
587  5.86  0.  0.
588  5.87  0.  0.
589  5.88  0.  0.
590  5.89  0.  0.
591  5.90  0.  0.
592  5.91  0.  0.
593  5.92  0.  0.
594  5.93  0.  0.
595  5.94  0.  0.
596  5.95  0.  0.
597  5.96  0.  0.
598  5.97  0.  0.
599  5.98  0.  0.
600  5.99  0.  0.
1                         4.7450421485483E+00  8.3380437264017E-01
1  0.0000000000000E+00  1.3002764837067E-08 -5.1757161306787E-08
2  1.0000000000000E-02  1.3940927312255E-03 -2.5316560554197E-03
3  2.0000000000000E-02  5.5572494139750E-03 -1.0055895025977E-02
4  3.0000000000000E-02  1.2432487532479E-02 -2.2362047460452E-02
5  4.0000000000000E-02  2.1926101942535E-02 -3.9104027533115E-02
6  5.0000000000000E-02  3.3909536733704E-02 -5.9807771684849E-02
7  6.0000000000000E-02  4.8221952952436E-02 -8.3881442355153E-02
8  7.0000000000000E-02  6.4673440546809E-02 -1.1062819137000E-01
9  8.0000000000000E-02  8.3048809890753E-02 -1.3926122579331E-01
10  9.0000000000000E-02  1.0311188651004E-01 -1.6892087231337E-01
11  1.0000000000000E-01  1.2461022239518E-01 -1.9869329543673E-01
12  1.1000000000000E-01  1.4728012875017E-01 -2.2763049070581E-01
13  1.2000000000000E-01  1.7085192836098E-01 -2.5477114751493E-01
14  1.3000000000000E-01  1.9505532110725E-01 -2.7916195740822E-01
15  1.4000000000000E-01  2.1962475358083E-01 -2.9987893338010E-01
16  1.5000000000000E-01  2.4430468337033E-01 -3.1604830388665E-01
17  1.6000000000000E-01  2.6885463033516E-01 -3.2686655206991E-01
18  1.7000000000000E-01  2.9305391109712E-01 -3.3161918598797E-01
19  1.8000000000000E-01  3.1670595895271E-01 -3.2969784915741E-01
20  1.9000000000000E-01  3.3964213934465E-01 -3.2061541201972E-01
21  2.0000000000000E-01  3.6172498077764E-01 -3.0401872345405E-01
22  2.1000000000000E-01  3.8285075243851E-01 -2.7969874645250E-01
23  2.2000000000000E-01  4.0295133256679E-01 -2.4759785269652E-01
24  2.3000000000000E-01  4.2199532557575E-01 -2.0781410606316E-01
25  2.4000000000000E-01  4.3998840077745E-01 -1.6060242398920E-01
26  2.5000000000000E-01  4.5697284103253E-01 -1.0637256700037E-01
27  2.6000000000000E-01  4.7302630542723E-01 -4.5683969388867E-02
28  2.7000000000000E-01  4.8825982586955E-01  2.0762513216677E-02
29  2.8000000000000E-01  5.0281507298559E-01  9.2135802018754E-02
30  2.9000000000000E-01  5.1686094158205E-01  1.6748854229734E-01
31  3.0000000000000E-01  5.3058951992789E-01  2.4577354728925E-01
32  3.1000000000000E-01  5.4421151991927E-01  3.2586243507023E-01
33  3.2000000000000E-01  5.5795125657075E-01  4.0656610924690E-01
34  3.3000000000000E-01  5.7204127499174E-01  4.8665669524096E-01
35  3.4000000000000E-01  5.8671673086034E-01  5.6489051225491E-01
36  3.5000000000000E-01  6.0220963623308E-01  6.4003163730781E-01
37  3.6000000000000E-01  6.1874308620083E-01  7.1087560252621E-01
38  3.7000000000000E-01  6.3652558333284E-01  7.7627276052035E-01
39  3.8000000000000E-01  6.5574557599924E-01  8.3515085534717E-01
40  3.9000000000000E-01  6.7656632352727E-01  8.8653634826712E-01
41  4.0000000000000E-01  6.9912119577277E-01  9.2957406807602E-01
42  4.1000000000000E-01  7.2350950716323E-01  9.6354478489824E-01
43  4.2000000000000E-01  7.4979297572289E-01  9.8788034345916E-01
44  4.3000000000000E-01  7.7799288619186E-01  1.0021760363538E+00
45  4.4000000000000E-01  8.0808802330796E-01  1.0061999488862E+00
46  4.5000000000000E-01  8.4001342687093E-01  9.9989906373304E-01
47  4.6000000000000E-01  8.7366000462180E-01  9.8340197493203E-01
48  4.7000000000000E-01  9.0887502253876E-01  9.5701812536524E-01
49  4.8000000000000E-01  9.4546347518447E-01  9.2123354877205E-01
50  4.9000000000000E-01  9.8319032156274E-01  8.7670316512203E-01
51  5.0000000000000E-01  1.0217835548843E+00  8.2423974559614E-01
52  5.1000000000000E-01  1.0609380580322E+00  7.6479972916925E-01
53  5.2000000000000E-01  1.1003201806823E+00  6.9946613557394E-01
54  5.3000000000000E-01  1.1395729592845E+00  6.2942887802373E-01
55  5.4000000000000E-01  1.1783218877395E+00  5.5596283232014E-01
56  5.5000000000000E-01  1.2161811348866E+00  4.8040406579344E-01
57  5.6000000000000E-01  1.2527600950843E+00  4.0412466897649E-01
58  5.7000000000000E-01  1.2876701504328E+00  3.2850666416548E-01
59  5.8000000000000E-01  1.3205315177134E+00  2.5491548740895E-01
60  5.9000000000000E-01  1.3509800500387E+00  1.8467355348172E-01
61  6.0000000000000E-01  1.3786738625962E+00  1.1903441671349E-01
62  6.1000000000000E-01  1.4032996537590E+00  5.9158034004408E-02
63  6.2000000000000E-01  1.4245785972243E+00  6.0876200124652E-03
64  6.3000000000000E-01  1.4422716876556E+00 -3.9271441431987E-02
65  6.4000000000000E-01  1.4561844314426E+00 -7.6170200727001E-02
66  6.5000000000000E-01  1.4661707855000E+00 -1.0403187543190E-01
67  6.6000000000000E-01  1.4721362603071E+00 -1.2246437893662E-01
68  6.7000000000000E-01  1.4740401184087E+00 -1.3126936945906E-01
69  6.8000000000000E-01  1.4718966160765E+00 -1.3044760818322E-01
70  6.9000000000000E-01  1.4657752534828E+00 -1.2020048424093E-01
71  7.0000000000000E-01  1.4558000172181E+00 -1.0092763650461E-01
72  7.1000000000000E-01  1.4421476179638E+00 -7.3220676464021E-02
73  7.2000000000000E-01  1.4250447452410E+00 -3.7853091381080E-02
74  7.3000000000000E-01  1.4047643800380E+00  4.2335189502940E-03
75  7.4000000000000E-01  1.3816212244089E+00  5.1946646615019E-02
76  7.5000000000000E-01  1.3559663244800E+00  1.0406322764981E-01
77  7.6000000000000E-01  1.3281809793560E+00  1.5925278494217E-01
78  7.7000000000000E-01  1.2986700428774E+00  2.1610294800298E-01
79  7.8000000000000E-01  1.2678547377353E+00  2.7314688589882E-01
80  7.9000000000000E-01  1.2361651118685E+00  3.2889214823615E-01
81  8.0000000000000E-01  1.2040322751085E+00  3.8185037693124E-01
82  8.1000000000000E-01  1.1718805595426E+00  4.3056732926782E-01
83  8.2000000000000E-01  1.1401197499044E+00  4.7365264095045E-01
84  8.3000000000000E-01  1.1091375303879E+00  5.0980875682007E-01
85  8.4000000000000E-01  1.0792922916058E+00  5.3785846672438E-01
86  8.5000000000000E-01  1.0509064359868E+00  5.5677050463235E-01
87  8.6000000000000E-01  1.0242603118214E+00  5.6568270015169E-01
88  8.7000000000000E-01  9.9958689554723E-01  5.6392221264869E-01
89  8.8000000000000E-01  9.7706732889408E-01  5.5102242848278E-01
90  8.9000000000000E-01  9.5682740241081E-01  5.2673616057848E-01
91  9.0000000000000E-01  9.3893505994799E-01  4.9104485561771E-01
92  9.1000000000000E-01  9.2339898016561E-01  4.4416358635361E-01
93  9.2000000000000E-01  9.1016827142371E-01  3.8654168360473E-01
94  9.3000000000000E-01  8.9913329585286E-01  3.1885894296398E-01
95  9.4000000000000E-01  8.9012761737543E-01  2.4201742365772E-01
96  9.5000000000000E-01  8.8293104735297E-01  1.5712893976621E-01
97  9.6000000000000E-01  8.7727374076549E-01  6.5498425614599E-02
98  9.7000000000000E-01  8.7284127577964E-01 -3.1396563979525E-02
99  9.8000000000000E-01  8.6928063062144E-01 -1.3192988328645E-01
100  9.9000000000000E-01  8.6620695419564E-01 -2.3435395078520E-01
101  1.0000000000000E+00  8.6321101123378E-01 -3.3682956359260E-01
102  1.0100000000000E+00  8.5986716920034E-01 -4.3745785120432E-01
103  1.0200000000000E+00  8.5574178302755E-01 -5.3431380410580E-01
104  1.0300000000000E+00  8.5040182519680E-01 -6.2548077852719E-01
105  1.0400000000000E+00  8.4342360291224E-01 -7.0908535518604E-01
106  1.0500000000000E+00  8.3440140126038E-01 -7.8333191785381E-01
107  1.0600000000000E+00  8.2295589136643E-01 -8.4653631719677E-01
108  1.0700000000000E+00  8.0874214568091E-01 -8.9715799674161E-01
109  1.0800000000000E+00  7.9145710859559E-01 -9.3382998076827E-01
110  1.0900000000000E+00  7.7084637950672E-01 -9.5538615810629E-01
111  1.1000000000000E+00  7.4671017708081E-01 -9.6088534068713E-01
112  1.1100000000000E+00  7.1890836756600E-01 -9.4963163025813E-01
113  1.1200000000000E+00  6.8736445640419E-01 -9.2119069040492E-01
114  1.1300000000000E+00  6.5206846064120E-01 -8.7540159204470E-01
115  1.1400000000000E+00  6.1307859964731E-01 -8.1238397862492E-01
116  1.1500000000000E+00  5.7052176273691E-01 -7.3254037961941E-01
117  1.1600000000000E+00  5.2459273443208E-01 -6.3655358763693E-01
118  1.1700000000000E+00  4.7555218050019E-01 -5.2537910222131E-01
119  1.1800000000000E+00  4.2372342054890E-01 -4.0023273239141E-01
120  1.1900000000000E+00  3.6948803504203E-01 -2.6257353684461E-01
121  1.2000000000000E+00  3.1328037604897E-01 -1.1408236531722E-01
122  1.2100000000000E+00  2.5558107122744E-01  4.3363655621981E-02
123  1.2200000000000E+00  1.9690962917370E-01  2.0772027520781E-01
124  1.2300000000000E+00  1.3781627108522E-01  3.7680842552581E-01
125  1.2400000000000E+00  7.8873128159961E-02  5.4834914106145E-01
126  1.2500000000000E+00  2.0664956277968E-02  7.2000050002809E-01
127  1.2600000000000E+00 -3.6220471149311E-02  8.8939595870068E-01
128  1.2700000000000E+00 -9.1202124794832E-02  1.0541834230017E+00
129  1.2800000000000E+00 -1.4371546461820E-01  1.2120643861087E+00
130  1.2900000000000E+00 -1.9322199737744E-01  1.3608324574758E+00
131  1.3000000000000E+00 -2.3921847778256E-01  1.4984106169709E+00
132  1.3100000000000E+00 -2.8124559032008E-01  1.6228865481468E+00
133  1.3200000000000E+00 -3.1889595736329E-01  1.7325454362375E+00
134  1.3300000000000E+00 -3.5182133050137E-01  1.8258996587035E+00