<UPF version="2.0.1">
<PP_INFO>

This pseudopotential file has been produced using the code
ONCVPSP  (Optimized Norm-Conservinng Vanderbilt PSeudopotential)
scalar-relativistic version 4.0.1 06/20/2107 by D. R. Hamann
The code is available through a link at URL www.mat-simresearch.com.
Documentation with the package provides a full discription of the
input data below.


While it is not required under the terms of the GNU GPL, it is
suggested that you cite D. R. Hamann, Phys. Rev. B 88, 085117 (2013)
in any publication using these pseudopotentials.

<PP_INPUTFILE>
# ATOM AND REFERENCE CONFIGURATION
# atsym  z   nc   nv     iexc    psfile
O  8.00    1    2       4      both
#
#   n    l    f        energy (Ha)
1    0    2.00
2    0    2.00
2    1    4.00
#
# PSEUDOPOTENTIAL AND OPTIMIZATION
# lmax
2
#
#   l,   rc,      ep,       ncon, nbas, qcut
0   1.25000   0.00000    4    8   8.50000
1   1.35000   0.00000    4    8   9.40000
2   1.25000   0.10000    4    8   6.00000
#
# LOCAL POTENTIAL
# lloc, lpopt,  rc(5),   dvloc0
4    5   1.20000      0.00000
#
# VANDERBILT-KLEINMAN-BYLANDER PROJECTORs
# l, nproj, debl
0    2   1.00000
1    2   1.00000
2    1   1.00000
#
# MODEL CORE CHARGE
# icmod, fcfact, rcfact
3   4.00000   1.50000
#
# LOG DERIVATIVE ANALYSIS
# epsh1, epsh2, depsh
-12.00   12.00    0.02
#
# OUTPUT GRID
# rlmax, drl
6.00    0.01
#
# TEST CONFIGURATIONS
# ncnf
0
# nvcnf
#   n    l    f
</PP_INPUTFILE>
</PP_INFO>
<!--                               -->
<!-- END OF HUMAN READABLE SECTION -->
<!--                               -->
<PP_HEADER
generated="Generated using ONCVPSP code by D. R. Hamann"
author="anonymous"
date="241126"
comment=""
element="O "
pseudo_type="NC"
relativistic="scalar"
is_ultrasoft="F"
is_paw="F"
is_coulomb="F"
has_so="F"
has_wfc="F"
has_gipaw="F"
core_correction="T"
functional="PBE"
z_valence="    6.00"
total_psenergy="  -3.15467005293E+01"
rho_cutoff="   9.33000000000E+00"
l_max="2"
l_local="-1"
mesh_size="   934"
number_of_wfc="2"
number_of_proj="5"/>
<PP_MESH>
<PP_R type="real"  size=" 934" columns="8">
0.0000    0.0100    0.0200    0.0300    0.0400    0.0500    0.0600    0.0700
0.0800    0.0900    0.1000    0.1100    0.1200    0.1300    0.1400    0.1500
0.1600    0.1700    0.1800    0.1900    0.2000    0.2100    0.2200    0.2300
0.2400    0.2500    0.2600    0.2700    0.2800    0.2900    0.3000    0.3100
0.3200    0.3300    0.3400    0.3500    0.3600    0.3700    0.3800    0.3900
0.4000    0.4100    0.4200    0.4300    0.4400    0.4500    0.4600    0.4700
0.4800    0.4900    0.5000    0.5100    0.5200    0.5300    0.5400    0.5500
0.5600    0.5700    0.5800    0.5900    0.6000    0.6100    0.6200    0.6300
0.6400    0.6500    0.6600    0.6700    0.6800    0.6900    0.7000    0.7100
0.7200    0.7300    0.7400    0.7500    0.7600    0.7700    0.7800    0.7900
0.8000    0.8100    0.8200    0.8300    0.8400    0.8500    0.8600    0.8700
0.8800    0.8900    0.9000    0.9100    0.9200    0.9300    0.9400    0.9500
0.9600    0.9700    0.9800    0.9900    1.0000    1.0100    1.0200    1.0300
1.0400    1.0500    1.0600    1.0700    1.0800    1.0900    1.1000    1.1100
1.1200    1.1300    1.1400    1.1500    1.1600    1.1700    1.1800    1.1900
1.2000    1.2100    1.2200    1.2300    1.2400    1.2500    1.2600    1.2700
1.2800    1.2900    1.3000    1.3100    1.3200    1.3300    1.3400    1.3500
1.3600    1.3700    1.3800    1.3900    1.4000    1.4100    1.4200    1.4300
1.4400    1.4500    1.4600    1.4700    1.4800    1.4900    1.5000    1.5100
1.5200    1.5300    1.5400    1.5500    1.5600    1.5700    1.5800    1.5900
1.6000    1.6100    1.6200    1.6300    1.6400    1.6500    1.6600    1.6700
1.6800    1.6900    1.7000    1.7100    1.7200    1.7300    1.7400    1.7500
1.7600    1.7700    1.7800    1.7900    1.8000    1.8100    1.8200    1.8300
1.8400    1.8500    1.8600    1.8700    1.8800    1.8900    1.9000    1.9100
1.9200    1.9300    1.9400    1.9500    1.9600    1.9700    1.9800    1.9900
2.0000    2.0100    2.0200    2.0300    2.0400    2.0500    2.0600    2.0700
2.0800    2.0900    2.1000    2.1100    2.1200    2.1300    2.1400    2.1500
2.1600    2.1700    2.1800    2.1900    2.2000    2.2100    2.2200    2.2300
2.2400    2.2500    2.2600    2.2700    2.2800    2.2900    2.3000    2.3100
2.3200    2.3300    2.3400    2.3500    2.3600    2.3700    2.3800    2.3900
2.4000    2.4100    2.4200    2.4300    2.4400    2.4500    2.4600    2.4700
2.4800    2.4900    2.5000    2.5100    2.5200    2.5300    2.5400    2.5500
2.5600    2.5700    2.5800    2.5900    2.6000    2.6100    2.6200    2.6300
2.6400    2.6500    2.6600    2.6700    2.6800    2.6900    2.7000    2.7100
2.7200    2.7300    2.7400    2.7500    2.7600    2.7700    2.7800    2.7900
2.8000    2.8100    2.8200    2.8300    2.8400    2.8500    2.8600    2.8700
2.8800    2.8900    2.9000    2.9100    2.9200    2.9300    2.9400    2.9500
2.9600    2.9700    2.9800    2.9900    3.0000    3.0100    3.0200    3.0300
3.0400    3.0500    3.0600    3.0700    3.0800    3.0900    3.1000    3.1100
3.1200    3.1300    3.1400    3.1500    3.1600    3.1700    3.1800    3.1900
3.2000    3.2100    3.2200    3.2300    3.2400    3.2500    3.2600    3.2700
3.2800    3.2900    3.3000    3.3100    3.3200    3.3300    3.3400    3.3500
3.3600    3.3700    3.3800    3.3900    3.4000    3.4100    3.4200    3.4300
3.4400    3.4500    3.4600    3.4700    3.4800    3.4900    3.5000    3.5100
3.5200    3.5300    3.5400    3.5500    3.5600    3.5700    3.5800    3.5900
3.6000    3.6100    3.6200    3.6300    3.6400    3.6500    3.6600    3.6700
3.6800    3.6900    3.7000    3.7100    3.7200    3.7300    3.7400    3.7500
3.7600    3.7700    3.7800    3.7900    3.8000    3.8100    3.8200    3.8300
3.8400    3.8500    3.8600    3.8700    3.8800    3.8900    3.9000    3.9100
3.9200    3.9300    3.9400    3.9500    3.9600    3.9700    3.9800    3.9900
4.0000    4.0100    4.0200    4.0300    4.0400    4.0500    4.0600    4.0700
4.0800    4.0900    4.1000    4.1100    4.1200    4.1300    4.1400    4.1500
4.1600    4.1700    4.1800    4.1900    4.2000    4.2100    4.2200    4.2300
4.2400    4.2500    4.2600    4.2700    4.2800    4.2900    4.3000    4.3100
4.3200    4.3300    4.3400    4.3500    4.3600    4.3700    4.3800    4.3900
4.4000    4.4100    4.4200    4.4300    4.4400    4.4500    4.4600    4.4700
4.4800    4.4900    4.5000    4.5100    4.5200    4.5300    4.5400    4.5500
4.5600    4.5700    4.5800    4.5900    4.6000    4.6100    4.6200    4.6300
4.6400    4.6500    4.6600    4.6700    4.6800    4.6900    4.7000    4.7100
4.7200    4.7300    4.7400    4.7500    4.7600    4.7700    4.7800    4.7900
4.8000    4.8100    4.8200    4.8300    4.8400    4.8500    4.8600    4.8700
4.8800    4.8900    4.9000    4.9100    4.9200    4.9300    4.9400    4.9500
4.9600    4.9700    4.9800    4.9900    5.0000    5.0100    5.0200    5.0300
5.0400    5.0500    5.0600    5.0700    5.0800    5.0900    5.1000    5.1100
5.1200    5.1300    5.1400    5.1500    5.1600    5.1700    5.1800    5.1900
5.2000    5.2100    5.2200    5.2300    5.2400    5.2500    5.2600    5.2700
5.2800    5.2900    5.3000    5.3100    5.3200    5.3300    5.3400    5.3500
5.3600    5.3700    5.3800    5.3900    5.4000    5.4100    5.4200    5.4300
5.4400    5.4500    5.4600    5.4700    5.4800    5.4900    5.5000    5.5100
5.5200    5.5300    5.5400    5.5500    5.5600    5.5700    5.5800    5.5900
5.6000    5.6100    5.6200    5.6300    5.6400    5.6500    5.6600    5.6700
5.6800    5.6900    5.7000    5.7100    5.7200    5.7300    5.7400    5.7500
5.7600    5.7700    5.7800    5.7900    5.8000    5.8100    5.8200    5.8300
5.8400    5.8500    5.8600    5.8700    5.8800    5.8900    5.9000    5.9100
5.9200    5.9300    5.9400    5.9500    5.9600    5.9700    5.9800    5.9900
6.0000    6.0100    6.0200    6.0300    6.0400    6.0500    6.0600    6.0700
6.0800    6.0900    6.1000    6.1100    6.1200    6.1300    6.1400    6.1500
6.1600    6.1700    6.1800    6.1900    6.2000    6.2100    6.2200    6.2300
6.2400    6.2500    6.2600    6.2700    6.2800    6.2900    6.3000    6.3100
6.3200    6.3300    6.3400    6.3500    6.3600    6.3700    6.3800    6.3900
6.4000    6.4100    6.4200    6.4300    6.4400    6.4500    6.4600    6.4700
6.4800    6.4900    6.5000    6.5100    6.5200    6.5300    6.5400    6.5500
6.5600    6.5700    6.5800    6.5900    6.6000    6.6100    6.6200    6.6300
6.6400    6.6500    6.6600    6.6700    6.6800    6.6900    6.7000    6.7100
6.7200    6.7300    6.7400    6.7500    6.7600    6.7700    6.7800    6.7900
6.8000    6.8100    6.8200    6.8300    6.8400    6.8500    6.8600    6.8700
6.8800    6.8900    6.9000    6.9100    6.9200    6.9300    6.9400    6.9500
6.9600    6.9700    6.9800    6.9900    7.0000    7.0100    7.0200    7.0300
7.0400    7.0500    7.0600    7.0700    7.0800    7.0900    7.1000    7.1100
7.1200    7.1300    7.1400    7.1500    7.1600    7.1700    7.1800    7.1900
7.2000    7.2100    7.2200    7.2300    7.2400    7.2500    7.2600    7.2700
7.2800    7.2900    7.3000    7.3100    7.3200    7.3300    7.3400    7.3500
7.3600    7.3700    7.3800    7.3900    7.4000    7.4100    7.4200    7.4300
7.4400    7.4500    7.4600    7.4700    7.4800    7.4900    7.5000    7.5100
7.5200    7.5300    7.5400    7.5500    7.5600    7.5700    7.5800    7.5900
7.6000    7.6100    7.6200    7.6300    7.6400    7.6500    7.6600    7.6700
7.6800    7.6900    7.7000    7.7100    7.7200    7.7300    7.7400    7.7500
7.7600    7.7700    7.7800    7.7900    7.8000    7.8100    7.8200    7.8300
7.8400    7.8500    7.8600    7.8700    7.8800    7.8900    7.9000    7.9100
7.9200    7.9300    7.9400    7.9500    7.9600    7.9700    7.9800    7.9900
8.0000    8.0100    8.0200    8.0300    8.0400    8.0500    8.0600    8.0700
8.0800    8.0900    8.1000    8.1100    8.1200    8.1300    8.1400    8.1500
8.1600    8.1700    8.1800    8.1900    8.2000    8.2100    8.2200    8.2300
8.2400    8.2500    8.2600    8.2700    8.2800    8.2900    8.3000    8.3100
8.3200    8.3300    8.3400    8.3500    8.3600    8.3700    8.3800    8.3900
8.4000    8.4100    8.4200    8.4300    8.4400    8.4500    8.4600    8.4700
8.4800    8.4900    8.5000    8.5100    8.5200    8.5300    8.5400    8.5500
8.5600    8.5700    8.5800    8.5900    8.6000    8.6100    8.6200    8.6300
8.6400    8.6500    8.6600    8.6700    8.6800    8.6900    8.7000    8.7100
8.7200    8.7300    8.7400    8.7500    8.7600    8.7700    8.7800    8.7900
8.8000    8.8100    8.8200    8.8300    8.8400    8.8500    8.8600    8.8700
8.8800    8.8900    8.9000    8.9100    8.9200    8.9300    8.9400    8.9500
8.9600    8.9700    8.9800    8.9900    9.0000    9.0100    9.0200    9.0300
9.0400    9.0500    9.0600    9.0700    9.0800    9.0900    9.1000    9.1100
9.1200    9.1300    9.1400    9.1500    9.1600    9.1700    9.1800    9.1900
9.2000    9.2100    9.2200    9.2300    9.2400    9.2500    9.2600    9.2700
9.2800    9.2900    9.3000    9.3100    9.3200    9.3300
</PP_R>
<PP_RAB type="real"  size=" 934" columns="8">
0.0100    0.0100    0.0100    0.0100    0.0100    0.0100    0.0100    0.0100
0.0100    0.0100    0.0100    0.0100    0.0100    0.0100    0.0100    0.0100
0.0100    0.0100    0.0100    0.0100    0.0100    0.0100    0.0100    0.0100
0.0100    0.0100    0.0100    0.0100    0.0100    0.0100    0.0100    0.0100
0.0100    0.0100    0.0100    0.0100    0.0100    0.0100    0.0100    0.0100
0.0100    0.0100    0.0100    0.0100    0.0100    0.0100    0.0100    0.0100
0.0100    0.0100    0.0100    0.0100    0.0100    0.0100    0.0100    0.0100
0.0100    0.0100    0.0100    0.0100    0.0100    0.0100    0.0100    0.0100
0.0100    0.0100    0.0100    0.0100    0.0100    0.0100    0.0100    0.0100
0.0100    0.0100    0.0100    0.0100    0.0100    0.0100    0.0100    0.0100
0.0100    0.0100    0.0100    0.0100    0.0100    0.0100    0.0100    0.0100
0.0100    0.0100    0.0100    0.0100    0.0100    0.0100    0.0100    0.0100
0.0100    0.0100    0.0100    0.0100    0.0100    0.0100    0.0100    0.0100
0.0100    0.0100    0.0100    0.0100    0.0100    0.0100    0.0100    0.0100
0.0100    0.0100    0.0100    0.0100    0.0100    0.0100    0.0100    0.0100
0.0100    0.0100    0.0100    0.0100    0.0100    0.0100    0.0100    0.0100
0.0100    0.0100    0.0100    0.0100    0.0100    0.0100    0.0100    0.0100
0.0100    0.0100    0.0100    0.0100    0.0100    0.0100    0.0100    0.0100
0.0100    0.0100    0.0100    0.0100    0.0100    0.0100    0.0100    0.0100
0.0100    0.0100    0.0100    0.0100    0.0100    0.0100    0.0100    0.0100
0.0100    0.0100    0.0100    0.0100    0.0100    0.0100    0.0100    0.0100
0.0100    0.0100    0.0100    0.0100    0.0100    0.0100    0.0100    0.0100
0.0100    0.0100    0.0100    0.0100    0.0100    0.0100    0.0100    0.0100
0.0100    0.0100    0.0100    0.0100    0.0100    0.0100    0.0100    0.0100
0.0100    0.0100    0.0100    0.0100    0.0100    0.0100    0.0100    0.0100
0.0100    0.0100    0.0100    0.0100    0.0100    0.0100    0.0100    0.0100
0.0100    0.0100    0.0100    0.0100    0.0100    0.0100    0.0100    0.0100
0.0100    0.0100    0.0100    0.0100    0.0100    0.0100    0.0100    0.0100
0.0100    0.0100    0.0100    0.0100    0.0100    0.0100    0.0100    0.0100
0.0100    0.0100    0.0100    0.0100    0.0100    0.0100    0.0100    0.0100
0.0100    0.0100    0.0100    0.0100    0.0100    0.0100    0.0100    0.0100
0.0100    0.0100    0.0100    0.0100    0.0100    0.0100    0.0100    0.0100
0.0100    0.0100    0.0100    0.0100    0.0100    0.0100    0.0100    0.0100
0.0100    0.0100    0.0100    0.0100    0.0100    0.0100    0.0100    0.0100
0.0100    0.0100    0.0100    0.0100    0.0100    0.0100    0.0100    0.0100
0.0100    0.0100    0.0100    0.0100    0.0100    0.0100    0.0100    0.0100
0.0100    0.0100    0.0100    0.0100    0.0100    0.0100    0.0100    0.0100
0.0100    0.0100    0.0100    0.0100    0.0100    0.0100    0.0100    0.0100
0.0100    0.0100    0.0100    0.0100    0.0100    0.0100    0.0100    0.0100
0.0100    0.0100    0.0100    0.0100    0.0100    0.0100    0.0100    0.0100
0.0100    0.0100    0.0100    0.0100    0.0100    0.0100    0.0100    0.0100
0.0100    0.0100    0.0100    0.0100    0.0100    0.0100    0.0100    0.0100
0.0100    0.0100    0.0100    0.0100    0.0100    0.0100    0.0100    0.0100
0.0100    0.0100    0.0100    0.0100    0.0100    0.0100    0.0100    0.0100
0.0100    0.0100    0.0100    0.0100    0.0100    0.0100    0.0100    0.0100
0.0100    0.0100    0.0100    0.0100    0.0100    0.0100    0.0100    0.0100
0.0100    0.0100    0.0100    0.0100    0.0100    0.0100    0.0100    0.0100
0.0100    0.0100    0.0100    0.0100    0.0100    0.0100    0.0100    0.0100
0.0100    0.0100    0.0100    0.0100    0.0100    0.0100    0.0100    0.0100
0.0100    0.0100    0.0100    0.0100    0.0100    0.0100    0.0100    0.0100
0.0100    0.0100    0.0100    0.0100    0.0100    0.0100    0.0100    0.0100
0.0100    0.0100    0.0100    0.0100    0.0100    0.0100    0.0100    0.0100
0.0100    0.0100    0.0100    0.0100    0.0100    0.0100    0.0100    0.0100
0.0100    0.0100    0.0100    0.0100    0.0100    0.0100    0.0100    0.0100
0.0100    0.0100    0.0100    0.0100    0.0100    0.0100    0.0100    0.0100
0.0100    0.0100    0.0100    0.0100    0.0100    0.0100    0.0100    0.0100
0.0100    0.0100    0.0100    0.0100    0.0100    0.0100    0.0100    0.0100
0.0100    0.0100    0.0100    0.0100    0.0100    0.0100    0.0100    0.0100
0.0100    0.0100    0.0100    0.0100    0.0100    0.0100    0.0100    0.0100
0.0100    0.0100    0.0100    0.0100    0.0100    0.0100    0.0100    0.0100
0.0100    0.0100    0.0100    0.0100    0.0100    0.0100    0.0100    0.0100
0.0100    0.0100    0.0100    0.0100    0.0100    0.0100    0.0100    0.0100
0.0100    0.0100    0.0100    0.0100    0.0100    0.0100    0.0100    0.0100
0.0100    0.0100    0.0100    0.0100    0.0100    0.0100    0.0100    0.0100
0.0100    0.0100    0.0100    0.0100    0.0100    0.0100    0.0100    0.0100
0.0100    0.0100    0.0100    0.0100    0.0100    0.0100    0.0100    0.0100
0.0100    0.0100    0.0100    0.0100    0.0100    0.0100    0.0100    0.0100
0.0100    0.0100    0.0100    0.0100    0.0100    0.0100    0.0100    0.0100
0.0100    0.0100    0.0100    0.0100    0.0100    0.0100    0.0100    0.0100
0.0100    0.0100    0.0100    0.0100    0.0100    0.0100    0.0100    0.0100
0.0100    0.0100    0.0100    0.0100    0.0100    0.0100    0.0100    0.0100
0.0100    0.0100    0.0100    0.0100    0.0100    0.0100    0.0100    0.0100
0.0100    0.0100    0.0100    0.0100    0.0100    0.0100    0.0100    0.0100
0.0100    0.0100    0.0100    0.0100    0.0100    0.0100    0.0100    0.0100
0.0100    0.0100    0.0100    0.0100    0.0100    0.0100    0.0100    0.0100
0.0100    0.0100    0.0100    0.0100    0.0100    0.0100    0.0100    0.0100
0.0100    0.0100    0.0100    0.0100    0.0100    0.0100    0.0100    0.0100
0.0100    0.0100    0.0100    0.0100    0.0100    0.0100    0.0100    0.0100
0.0100    0.0100    0.0100    0.0100    0.0100    0.0100    0.0100    0.0100
0.0100    0.0100    0.0100    0.0100    0.0100    0.0100    0.0100    0.0100
0.0100    0.0100    0.0100    0.0100    0.0100    0.0100    0.0100    0.0100
0.0100    0.0100    0.0100    0.0100    0.0100    0.0100    0.0100    0.0100
0.0100    0.0100    0.0100    0.0100    0.0100    0.0100    0.0100    0.0100
0.0100    0.0100    0.0100    0.0100    0.0100    0.0100    0.0100    0.0100
0.0100    0.0100    0.0100    0.0100    0.0100    0.0100    0.0100    0.0100
0.0100    0.0100    0.0100    0.0100    0.0100    0.0100    0.0100    0.0100
0.0100    0.0100    0.0100    0.0100    0.0100    0.0100    0.0100    0.0100
0.0100    0.0100    0.0100    0.0100    0.0100    0.0100    0.0100    0.0100
0.0100    0.0100    0.0100    0.0100    0.0100    0.0100    0.0100    0.0100
0.0100    0.0100    0.0100    0.0100    0.0100    0.0100    0.0100    0.0100
0.0100    0.0100    0.0100    0.0100    0.0100    0.0100    0.0100    0.0100
0.0100    0.0100    0.0100    0.0100    0.0100    0.0100    0.0100    0.0100
0.0100    0.0100    0.0100    0.0100    0.0100    0.0100    0.0100    0.0100
0.0100    0.0100    0.0100    0.0100    0.0100    0.0100    0.0100    0.0100
0.0100    0.0100    0.0100    0.0100    0.0100    0.0100    0.0100    0.0100
0.0100    0.0100    0.0100    0.0100    0.0100    0.0100    0.0100    0.0100
0.0100    0.0100    0.0100    0.0100    0.0100    0.0100    0.0100    0.0100
0.0100    0.0100    0.0100    0.0100    0.0100    0.0100    0.0100    0.0100
0.0100    0.0100    0.0100    0.0100    0.0100    0.0100    0.0100    0.0100
0.0100    0.0100    0.0100    0.0100    0.0100    0.0100    0.0100    0.0100
0.0100    0.0100    0.0100    0.0100    0.0100    0.0100    0.0100    0.0100
0.0100    0.0100    0.0100    0.0100    0.0100    0.0100    0.0100    0.0100
0.0100    0.0100    0.0100    0.0100    0.0100    0.0100    0.0100    0.0100
0.0100    0.0100    0.0100    0.0100    0.0100    0.0100    0.0100    0.0100
0.0100    0.0100    0.0100    0.0100    0.0100    0.0100    0.0100    0.0100
0.0100    0.0100    0.0100    0.0100    0.0100    0.0100    0.0100    0.0100
0.0100    0.0100    0.0100    0.0100    0.0100    0.0100    0.0100    0.0100
0.0100    0.0100    0.0100    0.0100    0.0100    0.0100    0.0100    0.0100
0.0100    0.0100    0.0100    0.0100    0.0100    0.0100    0.0100    0.0100
0.0100    0.0100    0.0100    0.0100    0.0100    0.0100    0.0100    0.0100
0.0100    0.0100    0.0100    0.0100    0.0100    0.0100    0.0100    0.0100
0.0100    0.0100    0.0100    0.0100    0.0100    0.0100    0.0100    0.0100
0.0100    0.0100    0.0100    0.0100    0.0100    0.0100    0.0100    0.0100
0.0100    0.0100    0.0100    0.0100    0.0100    0.0100    0.0100    0.0100
0.0100    0.0100    0.0100    0.0100    0.0100    0.0100    0.0100    0.0100
0.0100    0.0100    0.0100    0.0100    0.0100    0.0100    0.0100    0.0100
0.0100    0.0100    0.0100    0.0100    0.0100    0.0100
</PP_RAB>
</PP_MESH>
<PP_LOCAL type="real"  size=" 934" columns="4">
-2.0508874774E+01   -2.0507126056E+01   -2.0501916051E+01   -2.0493370702E+01
-2.0481686897E+01   -2.0467121256E+01   -2.0449973729E+01   -2.0430569714E+01
-2.0409242361E+01   -2.0386316456E+01   -2.0362094904E+01   -2.0336848359E+01
-2.0310808170E+01   -2.0284162438E+01   -2.0257054761E+01   -2.0229585128E+01
-2.0201812379E+01   -2.0173757687E+01   -2.0145408607E+01   -2.0116723304E+01
-2.0087634728E+01   -2.0058054531E+01   -2.0027876635E+01   -1.9996980423E+01
-1.9965233529E+01   -1.9932494276E+01   -1.9898613787E+01   -1.9863437815E+01
-1.9826808336E+01   -1.9788564937E+01   -1.9748546016E+01   -1.9706589823E+01
-1.9662535339E+01   -1.9616223013E+01   -1.9567495362E+01   -1.9516197470E+01
-1.9462177428E+01   -1.9405286784E+01   -1.9345381107E+01   -1.9282320770E+01
-1.9215972109E+01   -1.9146209057E+01   -1.9072915387E+01   -1.8995987591E+01
-1.8915338362E+01   -1.8830900553E+01   -1.8742631338E+01   -1.8650516215E+01
-1.8554572431E+01   -1.8454851337E+01   -1.8351439305E+01   -1.8244456897E+01
-1.8134056218E+01   -1.8020416570E+01   -1.7903738783E+01   -1.7784238722E+01
-1.7662140604E+01   -1.7537670723E+01   -1.7411052077E+01   -1.7282500270E+01
-1.7152220793E+01   -1.7020407685E+01   -1.6887243348E+01   -1.6752899254E+01
-1.6617537204E+01   -1.6481310839E+01   -1.6344367124E+01   -1.6206847618E+01
-1.6068889392E+01   -1.5930625562E+01   -1.5792185418E+01   -1.5653694218E+01
-1.5515272720E+01   -1.5377036543E+01   -1.5239095464E+01   -1.5101552730E+01
-1.4964504464E+01   -1.4828039222E+01   -1.4692237727E+01   -1.4557172797E+01
-1.4422909477E+01   -1.4289505326E+01   -1.4157010876E+01   -1.4025470190E+01
-1.3894921511E+01   -1.3765397957E+01   -1.3636928233E+01   -1.3509537337E+01
-1.3383247227E+01   -1.3258077443E+01   -1.3134045666E+01   -1.3011168206E+01
-1.2889460416E+01   -1.2768937030E+01   -1.2649612424E+01   -1.2531500813E+01
-1.2414616375E+01   -1.2298973323E+01   -1.2184585915E+01   -1.2071468427E+01
-1.1959635082E+01   -1.1849099946E+01   -1.1739876806E+01   -1.1631979017E+01
-1.1525419347E+01   -1.1420209804E+01   -1.1316361465E+01   -1.1213884303E+01
-1.1112787015E+01   -1.1013076857E+01   -1.0914759491E+01   -1.0817838827E+01
-1.0722316891E+01   -1.0628193691E+01   -1.0535467096E+01   -1.0444132719E+01
-1.0354183812E+01   -1.0265611158E+01   -1.0178402969E+01   -1.0092544774E+01
-1.0008019246E+01   -9.9248062130E+00   -9.8428831860E+00   -9.7622276671E+00
-9.6828185480E+00   -9.6046364808E+00   -9.5276821385E+00   -9.4519734469E+00
-9.3774933122E+00   -9.3042233243E+00   -9.2321463069E+00   -9.1612440014E+00
-9.0914975997E+00   -9.0228875255E+00   -8.9553934060E+00   -8.8889937034E+00
-8.8236380800E+00   -8.7592398039E+00   -8.6957680852E+00   -8.6332105310E+00
-8.5715437230E+00   -8.5107500189E+00   -8.4508110381E+00   -8.3917091767E+00
-8.3334273230E+00   -8.2759488449E+00   -8.2192575570E+00   -8.1633376928E+00
-8.1081738790E+00   -8.0537511134E+00   -8.0000547467E+00   -7.9470704669E+00
-7.8947842874E+00   -7.8431825378E+00   -7.7922518570E+00   -7.7419791887E+00
-7.6923517778E+00   -7.6433571687E+00   -7.5949832038E+00   -7.5472180221E+00
-7.5000500580E+00   -7.4534680392E+00   -7.4074609838E+00   -7.3620181972E+00
-7.3171292663E+00   -7.2727840546E+00   -7.2289726941E+00   -7.1856855809E+00
-7.1429133440E+00   -7.1006469056E+00   -7.0588775340E+00   -7.0175943561E+00
-6.9767889483E+00   -6.9364604278E+00   -6.8965952180E+00   -6.8571856293E+00
-6.8182238831E+00   -6.7797023881E+00   -6.7416137251E+00   -6.7039506397E+00
-6.6667060389E+00   -6.6298729865E+00   -6.5934446986E+00   -6.5574145397E+00
-6.5217760183E+00   -6.4865227836E+00   -6.4516486211E+00   -6.4171474493E+00
-6.3830133162E+00   -6.3492403957E+00   -6.3158229843E+00   -6.2827554980E+00
-6.2500324690E+00   -6.2176485431E+00   -6.1855984762E+00   -6.1538771320E+00
-6.1224794789E+00   -6.0914005875E+00   -6.0606356280E+00   -6.0301798676E+00
-6.0000286683E+00   -5.9701774843E+00   -5.9406218598E+00   -5.9113574269E+00
-5.8823799032E+00   -5.8536850901E+00   -5.8252688703E+00   -5.7971272062E+00
-5.7692561377E+00   -5.7416517806E+00   -5.7143103248E+00   -5.6872280322E+00
-5.6604012354E+00   -5.6338263357E+00   -5.6074998020E+00   -5.5814181685E+00
-5.5555780338E+00   -5.5299760592E+00   -5.5046089673E+00   -5.4794735403E+00
-5.4545666193E+00   -5.4298851023E+00   -5.4054259432E+00   -5.3811861507E+00
-5.3571627869E+00   -5.3333529659E+00   -5.3097538531E+00   -5.2863626639E+00
-5.2631766623E+00   -5.2401931604E+00   -5.2174095167E+00   -5.1948231358E+00
-5.1724314667E+00   -5.1502320026E+00   -5.1282222791E+00   -5.1063998741E+00
-5.0847624065E+00   -5.0633075351E+00   -5.0420329585E+00   -5.0209364134E+00
-5.0000156746E+00   -4.9792685534E+00   -4.9586928977E+00   -4.9382865906E+00
-4.9180475500E+00   -4.8979737276E+00   -4.8780631086E+00   -4.8583137109E+00
-4.8387235841E+00   -4.8192908094E+00   -4.8000134985E+00   -4.7808897933E+00
-4.7619178651E+00   -4.7430959143E+00   -4.7244221694E+00   -4.7058948869E+00
-4.6875123503E+00   -4.6692728704E+00   -4.6511747831E+00   -4.6332164502E+00
-4.6153962612E+00   -4.5977126281E+00   -4.5801639844E+00   -4.5627487915E+00
-4.5454655345E+00   -4.5283127188E+00   -4.5112888731E+00   -4.4943925485E+00
-4.4776223174E+00   -4.4609767737E+00   -4.4444545319E+00   -4.4280542271E+00
-4.4117745143E+00   -4.3956140684E+00   -4.3795715835E+00   -4.3636457729E+00
-4.3478353682E+00   -4.3321391197E+00   -4.3165557953E+00   -4.3010841809E+00
-4.2857230796E+00   -4.2704713115E+00   -4.2553277135E+00   -4.2402911389E+00
-4.2253604572E+00   -4.2105345537E+00   -4.1958123293E+00   -4.1811927003E+00
-4.1666745980E+00   -4.1522569684E+00   -4.1379387722E+00   -4.1237189843E+00
-4.1095965935E+00   -4.0955706028E+00   -4.0816400284E+00   -4.0678038999E+00
-4.0540612601E+00   -4.0404111647E+00   -4.0268526821E+00   -4.0133848929E+00
-4.0000068903E+00   -3.9867177794E+00   -3.9735166772E+00   -3.9604027121E+00
-3.9473750244E+00   -3.9344327654E+00   -3.9215750976E+00   -3.9088011942E+00
-3.8961102395E+00   -3.8835014280E+00   -3.8709739648E+00   -3.8585270652E+00
-3.8461599546E+00   -3.8338718681E+00   -3.8216620508E+00   -3.8095297571E+00
-3.7974742512E+00   -3.7854948063E+00   -3.7735907048E+00   -3.7617612382E+00
-3.7500057067E+00   -3.7383234193E+00   -3.7267136937E+00   -3.7151758558E+00
-3.7037092400E+00   -3.6923131890E+00   -3.6809870532E+00   -3.6697301912E+00
-3.6585419695E+00   -3.6474217621E+00   -3.6363689507E+00   -3.6253829244E+00
-3.6144630797E+00   -3.6036088205E+00   -3.5928195575E+00   -3.5820947088E+00
-3.5714336991E+00   -3.5608359601E+00   -3.5503009304E+00   -3.5398280548E+00
-3.5294167850E+00   -3.5190665790E+00   -3.5087769011E+00   -3.4985472219E+00
-3.4883770181E+00   -3.4782657726E+00   -3.4682129740E+00   -3.4582181172E+00
-3.4482807026E+00   -3.4384002364E+00   -3.4285762305E+00   -3.4188082022E+00
-3.4090956746E+00   -3.3994381758E+00   -3.3898352396E+00   -3.3802864048E+00
-3.3707912156E+00   -3.3613492210E+00   -3.3519599753E+00   -3.3426230378E+00
-3.3333379725E+00   -3.3241043482E+00   -3.3149217388E+00   -3.3057897226E+00
-3.2967078825E+00   -3.2876758062E+00   -3.2786930857E+00   -3.2697593177E+00
-3.2608741029E+00   -3.2520370467E+00   -3.2432477586E+00   -3.2345058523E+00
-3.2258109457E+00   -3.2171626607E+00   -3.2085606234E+00   -3.2000044638E+00
-3.1914938158E+00   -3.1830283172E+00   -3.1746076098E+00   -3.1662313390E+00
-3.1578991539E+00   -3.1496107074E+00   -3.1413656560E+00   -3.1331636597E+00
-3.1250043823E+00   -3.1168874908E+00   -3.1088126558E+00   -3.1007795513E+00
-3.0927878546E+00   -3.0848372463E+00   -3.0769274104E+00   -3.0690580340E+00
-3.0612288076E+00   -3.0534394245E+00   -3.0456895815E+00   -3.0379789782E+00
-3.0303073173E+00   -3.0226743046E+00   -3.0150796487E+00   -3.0075230612E+00
-3.0000042567E+00   -2.9925229524E+00   -2.9850788684E+00   -2.9776717278E+00
-2.9703012562E+00   -2.9629671819E+00   -2.9556692360E+00   -2.9484071522E+00
-2.9411806668E+00   -2.9339895186E+00   -2.9268334492E+00   -2.9197122024E+00
-2.9126255247E+00   -2.9055731650E+00   -2.8985548746E+00   -2.8915704072E+00
-2.8846195189E+00   -2.8777019681E+00   -2.8708175155E+00   -2.8639659242E+00
-2.8571469594E+00   -2.8503603887E+00   -2.8436059817E+00   -2.8368835104E+00
-2.8301927487E+00   -2.8235334729E+00   -2.8169054612E+00   -2.8103084939E+00
-2.8037423535E+00   -2.7972068244E+00   -2.7907016930E+00   -2.7842267476E+00
-2.7777817788E+00   -2.7713665788E+00   -2.7649809418E+00   -2.7586246640E+00
-2.7522975433E+00   -2.7459993795E+00   -2.7397299744E+00   -2.7334891314E+00
-2.7272766557E+00   -2.7210923545E+00   -2.7149360363E+00   -2.7088075119E+00
-2.7027065933E+00   -2.6966330944E+00   -2.6905868308E+00   -2.6845676198E+00
-2.6785752802E+00   -2.6726096323E+00   -2.6666704984E+00   -2.6607577020E+00
-2.6548710682E+00   -2.6490104240E+00   -2.6431755974E+00   -2.6373664183E+00
-2.6315827180E+00   -2.6258243291E+00   -2.6200910860E+00   -2.6143828242E+00
-2.6086993808E+00   -2.6030405944E+00   -2.5974063047E+00   -2.5917963532E+00
-2.5862105823E+00   -2.5806488362E+00   -2.5751109602E+00   -2.5695968008E+00
-2.5641062062E+00   -2.5586390255E+00   -2.5531951093E+00   -2.5477743094E+00
-2.5423764789E+00   -2.5370014722E+00   -2.5316491447E+00   -2.5263193532E+00
-2.5210119557E+00   -2.5157268114E+00   -2.5104637805E+00   -2.5052227247E+00
-2.5000035065E+00   -2.4948059897E+00   -2.4896300393E+00   -2.4844755213E+00
-2.4793423030E+00   -2.4742302524E+00   -2.4691392390E+00   -2.4640691332E+00
-2.4590198064E+00   -2.4539911312E+00   -2.4489829812E+00   -2.4439952308E+00
-2.4390277558E+00   -2.4340804328E+00   -2.4291531393E+00   -2.4242457540E+00
-2.4193581565E+00   -2.4144902273E+00   -2.4096418479E+00   -2.4048129009E+00
-2.4000032696E+00   -2.3952128384E+00   -2.3904414925E+00   -2.3856891181E+00