O     ONCVPSP-4.0.1  r_core=   1.35246   1.45312   1.25127
8.0000      6.0000      240206    zatom,zion,pspd
8      11   2     4   600     0    pspcod,pspxc,lmax,lloc,mmax,r2well
5.99000000  4.00000000  0.00000000    rchrg fchrg qchrg
2     2     1     0     0    nproj
1     1           extension_switch
0                         5.9374731537415E+00  7.8629543911960E-01
1  0.0000000000000E+00  2.5648262402811E-09 -5.6800341374785E-09
2  1.0000000000000E-02  9.0737059837094E-02 -2.6492064589226E-02
3  2.0000000000000E-02  1.8122470051998E-01 -5.2781537139684E-02
4  3.0000000000000E-02  2.7121372738472E-01 -7.8665651559493E-02
5  4.0000000000000E-02  3.6045541524393E-01 -1.0394133825170E-01
6  5.0000000000000E-02  4.4870179367793E-01 -1.2840518233962E-01
7  6.0000000000000E-02  5.3570599108408E-01 -1.5185350963808E-01
8  7.0000000000000E-02  6.2122265395042E-01 -1.7408263603371E-01
9  8.0000000000000E-02  7.0500845525488E-01 -1.9488931025748E-01
10  9.0000000000000E-02  7.8682270281885E-01 -2.1407137323813E-01
11  1.0000000000000E-01  8.6642805494783E-01 -2.3142864950832E-01
12  1.1000000000000E-01  9.4359134686811E-01 -2.4676407771507E-01
13  1.2000000000000E-01  1.0180845274227E+00 -2.5988507840282E-01
14  1.3000000000000E-01  1.0896857013339E+00 -2.7060514814720E-01
15  1.4000000000000E-01  1.1581802681918E+00 -2.7874566008430E-01
16  1.5000000000000E-01  1.2233621453019E+00 -2.8413784216976E-01
17  1.6000000000000E-01  1.2850350577405E+00 -2.8662489637401E-01
18  1.7000000000000E-01  1.3430138755291E+00 -2.8606421472226E-01
19  1.8000000000000E-01  1.3971259748563E+00 -2.8232964185057E-01
20  1.9000000000000E-01  1.4472125978315E+00 -2.7531372877150E-01
21  2.0000000000000E-01  1.4931301834400E+00 -2.6492991900255E-01
22  2.1000000000000E-01  1.5347516412300E+00 -2.5111460623798E-01
23  2.2000000000000E-01  1.5719675388638E+00 -2.3382900244096E-01
24  2.3000000000000E-01  1.6046871750192E+00 -2.1306075664789E-01
25  2.4000000000000E-01  1.6328395102548E+00 -1.8882526792095E-01
26  2.5000000000000E-01  1.6563739303301E+00 -1.6116664071862E-01
27  2.6000000000000E-01  1.6752608190815E+00 -1.3015823739602E-01
28  2.7000000000000E-01  1.6894919212345E+00 -9.5902790467395E-02
29  2.8000000000000E-01  1.6990804794212E+00 -5.8532046494091E-02
30  2.9000000000000E-01  1.7040611340826E+00 -1.8205923796126E-02
31  3.0000000000000E-01  1.7044895797629E+00  2.4888822618621E-02
32  3.1000000000000E-01  1.7004419764441E+00  7.0540423723496E-02
33  3.2000000000000E-01  1.6920141198938E+00  1.1851438946195E-01
34  3.3000000000000E-01  1.6793203803758E+00  1.6855624268604E-01
35  3.4000000000000E-01  1.6624924243811E+00  2.2039465289241E-01
36  3.5000000000000E-01  1.6416777391246E+00  2.7374491744878E-01
37  3.6000000000000E-01  1.6170379843003E+00  3.2831272777294E-01
38  3.7000000000000E-01  1.5887471998700E+00  3.8379814890908E-01
39  3.8000000000000E-01  1.5569899023516E+00  4.3989973340523E-01
40  3.9000000000000E-01  1.5219591050783E+00  4.9631868456232E-01
41  4.0000000000000E-01  1.4838543001288E+00  5.5276298019441E-01
42  4.1000000000000E-01  1.4428794409996E+00  6.0895136616606E-01
43  4.2000000000000E-01  1.3992409655705E+00  6.6461712925773E-01
44  4.3000000000000E-01  1.3531458984473E+00  7.1951156141294E-01
45  4.4000000000000E-01  1.3048000703678E+00  7.7340703213720E-01
46  4.5000000000000E-01  1.2544064900212E+00  8.2609959270001E-01
47  4.6000000000000E-01  1.2021639004085E+00  8.7741104472745E-01
48  4.7000000000000E-01  1.1482655478099E+00  9.2719041660321E-01
49  4.8000000000000E-01  1.0928981866182E+00  9.7531480361229E-01
50  4.9000000000000E-01  1.0362413378290E+00  1.0216895417050E+00
51  5.0000000000000E-01  9.7846681298103E-01  1.0662476998339E+00
52  5.1000000000000E-01  9.1973850894193E-01  1.1089488916911E+00
53  5.2000000000000E-01  8.6021247227476E-01  1.1497774239855E+00
54  5.3000000000000E-01  8.0003722516865E-01  1.1887398147782E+00
55  5.4000000000000E-01  7.3935433821718E-01  1.2258617314374E+00
56  5.5000000000000E-01  6.7829922885468E-01  1.2611844131100E+00
57  5.6000000000000E-01  6.1700215816786E-01  1.2947606568253E+00
58  5.7000000000000E-01  5.5558939324475E-01  1.3266504591117E+00
59  5.8000000000000E-01  4.9418449734915E-01  1.3569164159515E+00
60  5.9000000000000E-01  4.3290970614914E-01  1.3856189927286E+00
61  6.0000000000000E-01  3.7188734509695E-01  1.4128117822788E+00
62  6.1000000000000E-01  3.1124124095214E-01  1.4385368730036E+00
63  6.2000000000000E-01  2.5109807943190E-01  1.4628204501078E+00
64  6.3000000000000E-01  1.9158866111327E-01  1.4856687512672E+00
65  6.4000000000000E-01  1.3284900902306E-01  1.5070644933871E+00
66  6.5000000000000E-01  7.5021283831185E-02  1.5269638796088E+00
67  6.6000000000000E-01  1.8254466178499E-02  1.5452942854547E+00
68  6.7000000000000E-01 -3.7295229634382E-02  1.5619527101445E+00
69  6.8000000000000E-01 -9.1464240682341E-02  1.5768050638770E+00
70  6.9000000000000E-01 -1.4408186268620E-01  1.5896863445624E+00
71  7.0000000000000E-01 -1.9497079570261E-01  1.6004017384281E+00
72  7.1000000000000E-01 -2.4394803649103E-01  1.6087286585102E+00
73  7.2000000000000E-01 -2.9082611745730E-01  1.6144197137109E+00
74  7.3000000000000E-01 -3.3541468346740E-01  1.6172065792960E+00
75  7.4000000000000E-01 -3.7752238916377E-01  1.6168047179226E+00
76  7.5000000000000E-01 -4.1695909089687E-01  1.6129188790067E+00
77  7.6000000000000E-01 -4.5353829920714E-01  1.6052492839525E+00
78  7.7000000000000E-01 -4.8707985015013E-01  1.5934983859569E+00
79  7.8000000000000E-01 -5.1741274683873E-01  1.5773780762194E+00
80  7.9000000000000E-01 -5.4437811655558E-01  1.5566171938645E+00
81  8.0000000000000E-01 -5.6783222382268E-01  1.5309691850868E+00
82  8.1000000000000E-01 -5.8764947604254E-01  1.5002197482971E+00
83  8.2000000000000E-01 -6.0372535585828E-01  1.4641942966418E+00
84  8.3000000000000E-01 -6.1597921330540E-01  1.4227650673828E+00
85  8.4000000000000E-01 -6.2435685120267E-01  1.3758577093919E+00
86  8.5000000000000E-01 -6.2883283907855E-01  1.3234571854704E+00
87  8.6000000000000E-01 -6.2941249424734E-01  1.2656128353292E+00
88  8.7000000000000E-01 -6.2613347339522E-01  1.2024424577234E+00
89  8.8000000000000E-01 -6.1906692413990E-01  1.1341352862566E+00
90  8.9000000000000E-01 -6.0831815338398E-01  1.0609537524623E+00
91  9.0000000000000E-01 -5.9402677776142E-01  9.8323395159689E-01
92  9.1000000000000E-01 -5.7636633091573E-01  9.0138475073631E-01
93  9.2000000000000E-01 -5.5554331256592E-01  8.1588550477433E-01
94  9.3000000000000E-01 -5.3179567510726E-01  7.2728237327088E-01
95  9.4000000000000E-01 -5.0539075463854E-01  6.3618325923303E-01
96  9.5000000000000E-01 -4.7662266457207E-01  5.4325141924348E-01
97  9.6000000000000E-01 -4.4580918113185E-01  4.4919782229431E-01
98  9.7000000000000E-01 -4.1328816083585E-01  3.5477236162892E-01
99  9.8000000000000E-01 -3.7941354025438E-01  2.6075404925892E-01
100  9.9000000000000E-01 -3.4455097771499E-01  1.6794034604989E-01
101  1.0000000000000E+00 -3.0907320496369E-01  7.7135800817168E-02
102  1.0100000000000E+00 -2.7335516390427E-01 -1.0859810726734E-02
103  1.0200000000000E+00 -2.3776900924894E-01 -9.5263642495806E-02
104  1.0300000000000E+00 -2.0267906208039E-01 -1.7532201543336E-01
105  1.0400000000000E+00 -1.6843680183148E-01 -2.5032251548159E-01
106  1.0500000000000E+00 -1.3537598496176E-01 -3.1960573045317E-01
107  1.0600000000000E+00 -1.0380797759501E-01 -3.8257640727987E-01
108  1.0700000000000E+00 -7.4017386587220E-02 -4.3871381871259E-01
109  1.0800000000000E+00 -4.6258068932973E-02 -4.8758114056383E-01
110  1.0900000000000E+00 -2.0749593173260E-02 -5.2883365679694E-01
111  1.1000000000000E+00  2.3257813554372E-03 -5.6222562990488E-01
112  1.1100000000000E+00  2.2825550881237E-02 -5.8761569779785E-01
113  1.1200000000000E+00  4.0648793135634E-02 -6.0497068522753E-01
114  1.1300000000000E+00  5.5737338499440E-02 -6.1436774739130E-01
115  1.1400000000000E+00  6.8076264401684E-02 -6.1599479481652E-01
116  1.1500000000000E+00  7.7693704146439E-02 -6.1014918180880E-01
117  1.1600000000000E+00  8.4659974693249E-02 -5.9723467442318E-01
118  1.1700000000000E+00  8.9086041467684E-02 -5.7775674803289E-01
119  1.1800000000000E+00  9.1121351508735E-02 -5.5231629781953E-01
120  1.1900000000000E+00  9.0951079292140E-02 -5.2160187831955E-01
121  1.2000000000000E+00  8.8792840172168E-02 -4.8638061371381E-01
122  1.2100000000000E+00  8.4892945859396E-02 -4.4748797516394E-01
123  1.2200000000000E+00  7.9521480146680E-02 -4.0581408076976E-01
124  1.2300000000000E+00  7.2963858794801E-02 -3.6227920978505E-01
125  1.2400000000000E+00  6.5513393269247E-02 -3.1781311142936E-01
126  1.2500000000000E+00  5.7465665249967E-02 -2.7334034084704E-01
127  1.2600000000000E+00  4.9112901604700E-02 -2.2976565340637E-01
128  1.2700000000000E+00  4.0738422953719E-02 -1.8795964762048E-01
129  1.2800000000000E+00  3.2611295981324E-02 -1.4874486889091E-01
130  1.2900000000000E+00  2.4980451990132E-02 -1.1288259291391E-01
131  1.3000000000000E+00  1.8067817287173E-02 -8.1059043868131E-02
132  1.3100000000000E+00  1.2071463465255E-02 -5.3875891274148E-02
133  1.3200000000000E+00  7.1582301478024E-03 -3.1842646867046E-02
134  1.3300000000000E+00  3.4602807709123E-03 -1.5370539705593E-02
135  1.3400000000000E+00  1.0636633927964E-03 -4.7264999635570E-03
136  1.3500000000000E+00  6.2801754477275E-05 -2.7969873454527E-04
137  1.3600000000000E+00 -3.2668925482355E-06  1.4561662659646E-05
138  1.3700000000000E+00 -6.2084500619167E-07  2.7609307994532E-06
139  1.38 -0.  0.
140  1.39  0.  0.
141  1.40  0.  0.
142  1.41  0.  0.
143  1.42  0.  0.
144  1.43  0.  0.
145  1.44  0.  0.
146  1.45  0.  0.
147  1.46  0.  0.
148  1.47  0.  0.
149  1.48  0.  0.
150  1.49  0.  0.
151  1.50  0.  0.
152  1.51  0.  0.
153  1.52  0.  0.
154  1.53  0.  0.
155  1.54  0.  0.
156  1.55  0.  0.
157  1.56  0.  0.
158  1.57  0.  0.
159  1.58  0.  0.
160  1.59  0.  0.
161  1.60  0.  0.
162  1.61  0.  0.
163  1.62  0.  0.
164  1.63  0.  0.
165  1.64  0.  0.
166  1.65  0.  0.
167  1.66  0.  0.
168  1.67  0.  0.
169  1.68  0.  0.
170  1.69  0.  0.
171  1.70  0.  0.
172  1.71  0.  0.
173  1.72  0.  0.
174  1.73  0.  0.
175  1.74  0.  0.
176  1.75  0.  0.
177  1.76  0.  0.
178  1.77  0.  0.
179  1.78  0.  0.
180  1.79  0.  0.
181  1.80  0.  0.
182  1.81  0.  0.
183  1.82  0.  0.
184  1.83  0.  0.
185  1.84  0.  0.
186  1.85  0.  0.
187  1.86  0.  0.
188  1.87  0.  0.
189  1.88  0.  0.
190  1.89  0.  0.
191  1.90  0.  0.
192  1.91  0.  0.
193  1.92  0.  0.
194  1.93  0.  0.
195  1.94  0.  0.
196  1.95  0.  0.
197  1.96  0.  0.
198  1.97  0.  0.
199  1.98  0.  0.
200  1.99  0.  0.
201  2.00  0.  0.
202  2.01  0.  0.
203  2.02  0.  0.
204  2.03  0.  0.
205  2.04  0.  0.
206  2.05  0.  0.
207  2.06  0.  0.
208  2.07  0.  0.
209  2.08  0.  0.
210  2.09  0.  0.
211  2.10  0.  0.
212  2.11  0.  0.
213  2.12  0.  0.
214  2.13  0.  0.
215  2.14  0.  0.
216  2.15  0.  0.
217  2.16  0.  0.
218  2.17  0.  0.
219  2.18  0.  0.
220  2.19  0.  0.
221  2.20  0.  0.
222  2.21  0.  0.
223  2.22  0.  0.
224  2.23  0.  0.
225  2.24  0.  0.
226  2.25  0.  0.
227  2.26  0.  0.
228  2.27  0.  0.
229  2.28  0.  0.
230  2.29  0.  0.
231  2.30  0.  0.
232  2.31  0.  0.
233  2.32  0.  0.
234  2.33  0.  0.
235  2.34  0.  0.
236  2.35  0.  0.
237  2.36  0.  0.
238  2.37  0.  0.
239  2.38  0.  0.
240  2.39  0.  0.
241  2.40  0.  0.
242  2.41  0.  0.
243  2.42  0.  0.
244  2.43  0.  0.
245  2.44  0.  0.
246  2.45  0.  0.
247  2.46  0.  0.
248  2.47  0.  0.
249  2.48  0.  0.
250  2.49  0.  0.
251  2.50  0.  0.
252  2.51  0.  0.
253  2.52  0.  0.
254  2.53  0.  0.
255  2.54  0.  0.
256  2.55  0.  0.
257  2.56  0.  0.
258  2.57  0.  0.
259  2.58  0.  0.
260  2.59  0.  0.
261  2.60  0.  0.
262  2.61  0.  0.
263  2.62  0.  0.
264  2.63  0.  0.
265  2.64  0.  0.
266  2.65  0.  0.
267  2.66  0.  0.
268  2.67  0.  0.
269  2.68  0.  0.
270  2.69  0.  0.
271  2.70  0.  0.
272  2.71  0.  0.
273  2.72  0.  0.
274  2.73  0.  0.
275  2.74  0.  0.
276  2.75  0.  0.
277  2.76  0.  0.
278  2.77  0.  0.
279  2.78  0.  0.
280  2.79  0.  0.
281  2.80  0.  0.
282  2.81  0.  0.
283  2.82  0.  0.
284  2.83  0.  0.
285  2.84  0.  0.
286  2.85  0.  0.
287  2.86  0.  0.
288  2.87  0.  0.
289  2.88  0.  0.
290  2.89  0.  0.
291  2.90  0.  0.
292  2.91  0.  0.
293  2.92  0.  0.
294  2.93  0.  0.
295  2.94  0.  0.
296  2.95  0.  0.
297  2.96  0.  0.
298  2.97  0.  0.
299  2.98  0.  0.
300  2.99  0.  0.
301  3.00  0.  0.
302  3.01  0.  0.
303  3.02  0.  0.
304  3.03  0.  0.
305  3.04  0.  0.
306  3.05  0.  0.
307  3.06  0.  0.
308  3.07  0.  0.
309  3.08  0.  0.
310  3.09  0.  0.
311  3.10  0.  0.
312  3.11  0.  0.
313  3.12  0.  0.
314  3.13  0.  0.
315  3.14  0.  0.
316  3.15  0.  0.
317  3.16  0.  0.
318  3.17  0.  0.
319  3.18  0.  0.
320  3.19  0.  0.
321  3.20  0.  0.
322  3.21  0.  0.
323  3.22  0.  0.
324  3.23  0.  0.
325  3.24  0.  0.
326  3.25  0.  0.
327  3.26  0.  0.
328  3.27  0.  0.
329  3.28  0.  0.
330  3.29  0.  0.
331  3.30  0.  0.
332  3.31  0.  0.
333  3.32  0.  0.
334  3.33  0.  0.
335  3.34  0.  0.
336  3.35  0.  0.
337  3.36  0.  0.
338  3.37  0.  0.
339  3.38  0.  0.
340  3.39  0.  0.
341  3.40  0.  0.
342  3.41  0.  0.
343  3.42  0.  0.
344  3.43  0.  0.
345  3.44  0.  0.
346  3.45  0.  0.
347  3.46  0.  0.
348  3.47  0.  0.
349  3.48  0.  0.
350  3.49  0.  0.
351  3.50  0.  0.
352  3.51  0.  0.
353  3.52  0.  0.
354  3.53  0.  0.
355  3.54  0.  0.
356  3.55  0.  0.
357  3.56  0.  0.
358  3.57  0.  0.
359  3.58  0.  0.
360  3.59  0.  0.
361  3.60  0.  0.
362  3.61  0.  0.
363  3.62  0.  0.
364  3.63  0.  0.
365  3.64  0.  0.
366  3.65  0.  0.
367  3.66  0.  0.
368  3.67  0.  0.
369  3.68  0.  0.
370  3.69  0.  0.
371  3.70  0.  0.
372  3.71  0.  0.
373  3.72  0.  0.
374  3.73  0.  0.
375  3.74  0.  0.
376  3.75  0.  0.
377  3.76  0.  0.
378  3.77  0.  0.
379  3.78  0.  0.
380  3.79  0.  0.
381  3.80  0.  0.
382  3.81  0.  0.
383  3.82  0.  0.
384  3.83  0.  0.
385  3.84  0.  0.
386  3.85  0.  0.
387  3.86  0.  0.
388  3.87  0.  0.
389  3.88  0.  0.
390  3.89  0.  0.
391  3.90  0.  0.
392  3.91  0.  0.
393  3.92  0.  0.
394  3.93  0.  0.
395  3.94  0.  0.
396  3.95  0.  0.
397  3.96  0.  0.
398  3.97  0.  0.
399  3.98  0.  0.
400  3.99  0.  0.
401  4.00  0.  0.
402  4.01  0.  0.
403  4.02  0.  0.
404  4.03  0.  0.
405  4.04  0.  0.
406  4.05  0.  0.
407  4.06  0.  0.
408  4.07  0.  0.
409  4.08  0.  0.
410  4.09  0.  0.
411  4.10  0.  0.
412  4.11  0.  0.
413  4.12  0.  0.
414  4.13  0.  0.
415  4.14  0.  0.
416  4.15  0.  0.
417  4.16  0.  0.
418  4.17  0.  0.
419  4.18  0.  0.
420  4.19  0.  0.
421  4.20  0.  0.
422  4.21  0.  0.
423  4.22  0.  0.
424  4.23  0.  0.
425  4.24  0.  0.
426  4.25  0.  0.
427  4.26  0.  0.
428  4.27  0.  0.
429  4.28  0.  0.
430  4.29  0.  0.
431  4.30  0.  0.
432  4.31  0.  0.
433  4.32  0.  0.
434  4.33  0.  0.
435  4.34  0.  0.
436  4.35  0.  0.
437  4.36  0.  0.
438  4.37  0.  0.
439  4.38  0.  0.
440  4.39  0.  0.
441  4.40  0.  0.
442  4.41  0.  0.
443  4.42  0.  0.
444  4.43  0.  0.
445  4.44  0.  0.
446  4.45  0.  0.
447  4.46  0.  0.
448  4.47  0.  0.
449  4.48  0.  0.
450  4.49  0.  0.
451  4.50  0.  0.
452  4.51  0.  0.
453  4.52  0.  0.
454  4.53  0.  0.
455  4.54  0.  0.
456  4.55  0.  0.
457  4.56  0.  0.
458  4.57  0.  0.
459  4.58  0.  0.
460  4.59  0.  0.
461  4.60  0.  0.
462  4.61  0.  0.
463  4.62  0.  0.
464  4.63  0.  0.
465  4.64  0.  0.
466  4.65  0.  0.
467  4.66  0.  0.
468  4.67  0.  0.
469  4.68  0.  0.
470  4.69  0.  0.
471  4.70  0.  0.
472  4.71  0.  0.
473  4.72  0.  0.
474  4.73  0.  0.
475  4.74  0.  0.
476  4.75  0.  0.
477  4.76  0.  0.
478  4.77  0.  0.
479  4.78  0.  0.
480  4.79  0.  0.
481  4.80  0.  0.
482  4.81  0.  0.
483  4.82  0.  0.
484  4.83  0.  0.
485  4.84  0.  0.
486  4.85  0.  0.
487  4.86  0.  0.
488  4.87  0.  0.
489  4.88  0.  0.
490  4.89  0.  0.
491  4.90  0.  0.
492  4.91  0.  0.
493  4.92  0.  0.
494  4.93  0.  0.
495  4.94  0.  0.
496  4.95  0.  0.
497  4.96  0.  0.
498  4.97  0.  0.
499  4.98  0.  0.
500  4.99  0.  0.
501  5.00  0.  0.
502  5.01  0.  0.
503  5.02  0.  0.
504  5.03  0.  0.
505  5.04  0.  0.
506  5.05  0.  0.
507  5.06  0.  0.
508  5.07  0.  0.
509  5.08  0.  0.
510  5.09  0.  0.
511  5.10  0.  0.
512  5.11  0.  0.
513  5.12  0.  0.
514  5.13  0.  0.
515  5.14  0.  0.
516  5.15  0.  0.
517  5.16  0.  0.
518  5.17  0.  0.
519  5.18  0.  0.
520  5.19  0.  0.
521  5.20  0.  0.
522  5.21  0.  0.
523  5.22  0.  0.
524  5.23  0.  0.
525  5.24  0.  0.
526  5.25  0.  0.
527  5.26  0.  0.
528  5.27  0.  0.
529  5.28  0.  0.
530  5.29  0.  0.
531  5.30  0.  0.
532  5.31  0.  0.
533  5.32  0.  0.
534  5.33  0.  0.
535  5.34  0.  0.
536  5.35  0.  0.
537  5.36  0.  0.
538  5.37  0.  0.
539  5.38  0.  0.
540  5.39  0.  0.
541  5.40  0.  0.
542  5.41  0.  0.
543  5.42  0.  0.
544  5.43  0.  0.
545  5.44  0.  0.
546  5.45  0.  0.
547  5.46  0.  0.
548  5.47  0.  0.
549  5.48  0.  0.
550  5.49  0.  0.
551  5.50  0.  0.
552  5.51  0.  0.
553  5.52  0.  0.
554  5.53  0.  0.
555  5.54  0.  0.
556  5.55  0.  0.
557  5.56  0.  0.
558  5.57  0.  0.
559  5.58  0.  0.
560  5.59  0.  0.
561  5.60  0.  0.
562  5.61  0.  0.
563  5.62  0.  0.
564  5.63  0.  0.
565  5.64  0.  0.
566  5.65  0.  0.
567  5.66  0.  0.
568  5.67  0.  0.
569  5.68  0.  0.
570  5.69  0.  0.
571  5.70  0.  0.
572  5.71  0.  0.
573  5.72  0.  0.
574  5.73  0.  0.
575  5.74  0.  0.
576  5.75  0.  0.
577  5.76  0.  0.
578  5.77  0.  0.
579  5.78  0.  0.
580  5.79  0.  0.
581  5.80  0.  0.
582  5.81  0.  0.
583  5.82  0.  0.
584  5.83  0.  0.
585  5.84  0.  0.
586  5.85  0.  0.
587  5.86  0.  0.
588  5.87  0.  0.
589  5.88  0.  0.
590  5.89  0.  0.
591  5.90  0.  0.
592  5.91  0.  0.
593  5.92  0.  0.
594  5.93  0.  0.
595  5.94  0.  0.
596  5.95  0.  0.
597  5.96  0.  0.
598  5.97  0.  0.
599  5.98  0.  0.
600  5.99  0.  0.
1                        -4.6892421729336E+00 -1.1042472086736E+00
1  0.0000000000000E+00 -2.9536925127971E-09  7.1005166468741E-09
2  1.0000000000000E-02  2.0756377829439E-03 -8.5927628212188E-04
3  2.0000000000000E-02  8.2944819584544E-03 -3.4336156636826E-03
4  3.0000000000000E-02  1.8632298475955E-02 -7.7124337573893E-03
5  4.0000000000000E-02  3.3048610711077E-02 -1.3677707792791E-02
6  5.0000000000000E-02  5.1486576237357E-02 -2.1303419122492E-02
7  6.0000000000000E-02  7.3872827276371E-02 -3.0554803669554E-02
8  7.0000000000000E-02  1.0011728735095E-01 -4.1387440225684E-02
9  8.0000000000000E-02  1.3011297961977E-01 -5.3746213610339E-02
10  9.0000000000000E-02  1.6373584488031E-01 -6.7564195773225E-02
11  1.0000000000000E-01  2.0084458921211E-01 -8.2761492784573E-02
12  1.1000000000000E-01  2.4128058263442E-01 -9.9244109172557E-02
13  1.2000000000000E-01  2.8486783092057E-01 -1.1690288311914E-01
14  1.3000000000000E-01  3.3141304281663E-01 -1.3561254654632E-01
15  1.4000000000000E-01  3.8070581433785E-01 -1.5523096307894E-01
16  1.5000000000000E-01  4.3251895056672E-01 -1.7559859426590E-01
17  1.6000000000000E-01  4.8660894347036E-01 -1.9653824032679E-01
18  1.7000000000000E-01  5.4271662173042E-01 -2.1785509615125E-01
19  1.8000000000000E-01  6.0056798548866E-01 -2.3933715644020E-01
20  1.9000000000000E-01  6.5987523532422E-01 -2.6075599589869E-01
21  2.0000000000000E-01  7.2033800077662E-01 -2.8186794146171E-01
22  2.1000000000000E-01  7.8164476940490E-01 -3.0241564387128E-01
23  2.2000000000000E-01  8.4347451283073E-01 -3.2213004576499E-01
24  2.3000000000000E-01  9.0549850156166E-01 -3.4073273303510E-01
25  2.4000000000000E-01  9.6738229574414E-01 -3.5793864583692E-01
26  2.5000000000000E-01  1.0287878944689E+00 -3.7345911552991E-01
27  2.6000000000000E-01  1.0893760219597E+00 -3.8700518428782E-01
28  2.7000000000000E-01  1.1488085250288E+00 -3.9829115536646E-01
29  2.8000000000000E-01  1.2067508526816E+00 -4.0703831430486E-01
30  2.9000000000000E-01  1.2628745857969E+00 -4.1297875487023E-01
31  3.0000000000000E-01  1.3168599824726E+00 -4.1585923852552E-01
32  3.1000000000000E-01  1.3683985029850E+00 -4.1544501275040E-01
33  3.2000000000000E-01  1.4171952774126E+00 -4.1152351180093E-01
34  3.3000000000000E-01  1.4629714788558E+00 -4.0390786352142E-01
35  3.4000000000000E-01  1.5054665658651E+00 -3.9244012766088E-01
36  3.5000000000000E-01  1.5444403591649E+00 -3.7699419478142E-01
37  3.6000000000000E-01  1.5796749200099E+00 -3.5747828022615E-01
38  3.7000000000000E-01  1.6109762005023E+00 -3.3383695463711E-01
39  3.8000000000000E-01  1.6381754398600E+00 -3.0605266104510E-01
40  3.9000000000000E-01  1.6611302849062E+00 -2.7414667841092E-01
41  4.0000000000000E-01  1.6797256178359E+00 -2.3817950247213E-01
42  4.1000000000000E-01  1.6938740795262E+00 -1.9825062659707E-01
43  4.2000000000000E-01  1.7035162821630E+00 -1.5449771780246E-01
44  4.3000000000000E-01  1.7086207106490E+00 -1.0709519586691E-01
45  4.4000000000000E-01  1.7091833180028E+00 -5.6252236273171E-02
46  4.5000000000000E-01  1.7052268256250E+00 -2.2102302357252E-03
47  4.6000000000000E-01  1.6967997447780E+00  5.4760252982586E-02
48  4.7000000000000E-01  1.6839751407542E+00  1.1436294518051E-01
49  4.8000000000000E-01  1.6668491658981E+00  1.7627973352837E-01
50  4.9000000000000E-01  1.6455393917708E+00  2.4017481529918E-01
51  5.0000000000000E-01  1.6201829742153E+00  3.0569907129782E-01
52  5.1000000000000E-01  1.5909346878091E+00  3.7249457111600E-01
53  5.2000000000000E-01  1.5579648681102E+00  4.4019912012827E-01
54  5.3000000000000E-01  1.5214573011696E+00  5.0845075697300E-01
55  5.4000000000000E-01  1.4816070999610E+00  5.7689211118193E-01
56  5.5000000000000E-01  1.4386186066655E+00  6.4517453363904E-01
57  5.6000000000000E-01  1.3927033581572E+00  7.1296191761923E-01
58  5.7000000000000E-01  1.3440781495935E+00  7.7993413518333E-01
59  5.8000000000000E-01  1.2929632277795E+00  8.4579002254862E-01
60  5.9000000000000E-01  1.2395806420248E+00  9.1024985852364E-01
61  6.0000000000000E-01  1.1841527756255E+00  9.7305729196698E-01
62  6.1000000000000E-01  1.1269010759995E+00  1.0339806872348E+00
63  6.2000000000000E-01  1.0680449959942E+00  1.0928138704285E+00
64  6.3000000000000E-01  1.0078011531048E+00  1.1493762736221E+00
65  6.4000000000000E-01  9.4638270742450E-01  1.2035124888022E+00
66  6.5000000000000E-01  8.8399895324220E-01  1.2550912576487E+00
67  6.6000000000000E-01  8.2085511344830E-01  1.3040039371766E+00
68  6.7000000000000E-01  7.5715232044782E-01  1.3501624943071E+00
69  6.8000000000000E-01  6.9308776225034E-01  1.3934970943189E+00
70  6.9000000000000E-01  6.2885496793279E-01  1.4339533585483E+00
71  7.0000000000000E-01  5.6464420287021E-01  1.4714893753888E+00
72  7.1000000000000E-01  5.0064294110138E-01  1.5060725553539E+00
73  7.2000000000000E-01  4.3703638002378E-01  1.5376764255258E+00
74  7.3000000000000E-01  3.7400796135767E-01  1.5662774609708E+00
75  7.4000000000000E-01  3.1173986202509E-01  1.5918520505795E+00
76  7.5000000000000E-01  2.5041341927545E-01  1.6143736922416E+00
77  7.6000000000000E-01  1.9020945604899E-01  1.6338105073271E+00
78  7.7000000000000E-01  1.3130847517759E-01  1.6501231571914E+00
79  7.8000000000000E-01  7.3890694525903E-02  1.6632632349853E+00
80  7.9000000000000E-01  1.8135899501840E-02  1.6731721946326E+00
81  8.0000000000000E-01 -3.5776905579517E-02  1.6797808656659E+00
82  8.1000000000000E-01 -8.7670060125815E-02  1.6830095879814E+00
83  8.2000000000000E-01 -1.3736803058334E-01  1.6827689847997E+00
84  8.3000000000000E-01 -1.8469841463581E-01  1.6789613755683E+00
85  8.4000000000000E-01 -2.2949315979989E-01  1.6714828135893E+00
86  8.5000000000000E-01 -2.7158998322261E-01  1.6602257161956E+00
87  8.6000000000000E-01 -3.1083397291595E-01  1.6450820387416E+00
88  8.7000000000000E-01 -3.4707934439665E-01  1.6259469279171E+00
89  8.8000000000000E-01 -3.8019132089594E-01  1.6027227753271E+00
90  8.9000000000000E-01 -4.1004810011433E-01  1.5753235792710E+00
91  9.0000000000000E-01 -4.3654286606278E-01  1.5436795115458E+00
92  9.1000000000000E-01 -4.5958580097800E-01  1.5077415771924E+00
93  9.2000000000000E-01 -4.7910604973167E-01  1.4674862486437E+00
94  9.3000000000000E-01 -4.9505358765887E-01  1.4229199519453E+00
95  9.4000000000000E-01 -5.0740094236979E-01  1.3740832817249E+00
96  9.5000000000000E-01 -5.1614472091952E-01  1.3210548234885E+00
97  9.6000000000000E-01 -5.2130689570310E-01  1.2639544666320E+00
98  9.7000000000000E-01 -5.2293580560064E-01  1.2029460992256E+00
99  9.8000000000000E-01 -5.2110683317538E-01  1.1382395860525E+00
100  9.9000000000000E-01 -5.1592272405916E-01  1.0700919443813E+00
101  1.0000000000000E+00 -5.0751352094493E-01  9.9880764727921E-01
102  1.0100000000000E+00 -4.9603609172730E-01  9.2473800164824E-01
103  1.0200000000000E+00 -4.8167323914970E-01  8.4827956722375E-01
104  1.0300000000000E+00 -4.6463238767375E-01  7.6987160315313E-01
105  1.0400000000000E+00 -4.4514385200128E-01  6.8999255000376E-01
106  1.0500000000000E+00 -4.2345870057414E-01  6.0915557671498E-01
107  1.0600000000000E+00 -3.9984623626403E-01  5.2790324363842E-01
108  1.0700000000000E+00 -3.7459112512311E-01  4.4680135387374E-01
109  1.0800000000000E+00 -3.4799021234184E-01  3.6643208522092E-01
110  1.0900000000000E+00 -3.2034907222350E-01  2.8738651367984E-01
111  1.1000000000000E+00 -2.9197834588205E-01  2.1025665615790E-01
112  1.1100000000000E+00 -2.6318992633226E-01  1.3562717449058E-01
113  1.1200000000000E+00 -2.3429305550427E-01  6.4066894635926E-02
114  1.1300000000000E+00 -2.0559040138267E-01 -3.8796962578477E-03
115  1.1400000000000E+00 -1.7737418580799E-01 -6.7700806615962E-02
116  1.1500000000000E+00 -1.4992243443718E-01 -1.2692538050261E-01
117  1.1600000000000E+00 -1.2349541988422E-01 -1.8113065171443E-01
118  1.1700000000000E+00 -9.8332367123292E-02 -2.2994904744272E-01
119  1.1800000000000E+00 -7.4648486887140E-02 -2.7307428528905E-01
120  1.1900000000000E+00 -5.2632398088886E-02 -3.1026651887494E-01
121  1.2000000000000E+00 -3.2443993697279E-02 -3.4135640405159E-01
122  1.2100000000000E+00 -1.4212800367233E-02 -3.6624796407186E-01
123  1.2200000000000E+00  1.9634294691424E-03 -3.8492123889998E-01
124  1.2300000000000E+00  1.6020782400192E-02 -3.9743783294336E-01
125  1.2400000000000E+00  2.7930231791207E-02 -4.0394323580857E-01
126  1.2500000000000E+00  3.7697378478060E-02 -4.0466506317814E-01
127  1.2600000000000E+00  4.5361598065806E-02 -3.9990986422979E-01
128  1.2700000000000E+00  5.0994615193669E-02 -3.9005855835330E-01
129  1.2800000000000E+00  5.4698531463411E-02 -3.7556057433043E-01
130  1.2900000000000E+00  5.6603340332151E-02 -3.5692677616069E-01
131  1.3000000000000E+00  5.6863972356478E-02 -3.3472128435085E-01
132  1.3100000000000E+00  5.5656923502746E-02 -3.0955232420138E-01
133  1.3200000000000E+00  5.3176527377191E-02 -2.8206225217008E-01
134  1.3300000000000E+00  4.9630939467950E-02 -2.5291692892956E-01
135  1.3400000000000E+00  4.5237907312236E-02 -2.2279462170518E-01
136  1.3500000000000E+00  4.0220405012783E-02 -1.9237462931539E-01
137  1.3600000000000E+00  3.4802213058161E-02 -1.6232582948771E-01
138  1.3700000000000E+00  2.9203531683473E-02 -1.3329536293293E-01
139  1.3800000000000E+00  2.3636707055132E-02 -1.0589764736769E-01
140  1.3900000000000E+00  1.8304617415724E-02 -8.0708678049421E-02
141  1.4000000000000E+00  1.3393766899172E-02 -5.8250464913970E-02
142  1.4100000000000E+00  9.0672249842586E-03 -3.8975086099172E-02
143  1.4200000000000E+00  5.4666095787862E-03 -2.3266780282747E-02
144  1.4300000000000E+00  2.7089586505941E-03 -1.1435477189534E-02
145  1.4400000000000E+00  8.7687849067810E-04 -3.6772618595031E-03
146  1.4500000000000E+00  6.9049014844230E-05 -2.8790605974910E-04
147  1.4600000000000E+00 -8.6426336593876E-06  3.5931339586340E-05
148  1.4700000000000E+00  1.0799087030872E-06 -4.4997786849235E-06
149  1.48  0. -0.
150  1.49  0.  0.
151  1.50  0.  0.
152  1.51  0.  0.
153  1.52  0.  0.
154  1.53  0.  0.
155  1.54  0.  0.
156  1.55  0.  0.
157  1.56  0.  0.
158  1.57  0.  0.
159  1.58  0.  0.
160  1.59  0.  0.
161  1.60  0.  0.
162  1.61  0.  0.
163  1.62  0.  0.
164  1.63  0.  0.
165  1.64  0.  0.
166  1.65  0.  0.
167  1.66  0.  0.
168  1.67  0.  0.
169  1.68  0.  0.
170  1.69  0.  0.
171  1.70  0.  0.
172  1.71  0.  0.
173  1.72  0.  0.
174  1.73  0.  0.
175  1.74  0.  0.
176  1.75  0.  0.
177  1.76  0.  0.
178  1.77  0.  0.
179  1.78  0.  0.
180  1.79  0.  0.
181  1.80  0.  0.
182  1.81  0.  0.
183  1.82  0.  0.
184  1.83  0.  0.
185  1.84  0.  0.
186  1.85  0.  0.
187  1.86  0.  0.
188  1.87  0.  0.
189  1.88  0.  0.
190  1.89  0.  0.
191  1.90  0.  0.
192  1.91  0.  0.
193  1.92  0.  0.
194  1.93  0.  0.
195  1.94  0.  0.
196  1.95  0.  0.
197  1.96  0.  0.
198  1.97  0.  0.
199  1.98  0.  0.
200  1.99  0.  0.
201  2.00  0.  0.
202  2.01  0.  0.
203  2.02  0.  0.
204  2.03  0.  0.
205  2.04  0.  0.
206  2.05  0.  0.
207  2.06  0.  0.
208  2.07  0.  0.
209  2.08  0.  0.
210  2.09  0.  0.
211  2.10  0.  0.
212  2.11  0.  0.
213  2.12  0.  0.
214  2.13  0.  0.
215  2.14  0.  0.
216  2.15  0.  0.
217  2.16  0.  0.
218  2.17  0.  0.
219  2.18  0.  0.
220  2.19  0.  0.
221  2.20  0.  0.
222  2.21  0.  0.
223  2.22  0.  0.
224  2.23  0.  0.
225  2.24  0.  0.
226  2.25  0.  0.
227  2.26  0.  0.
228  2.27  0.  0.
229  2.28  0.  0.
230  2.29  0.  0.
231  2.30  0.  0.
232  2.31  0.  0.
233  2.32  0.  0.
234  2.33  0.  0.
235  2.34  0.  0.
236  2.35  0.  0.
237  2.36  0.  0.
238  2.37  0.  0.
239  2.38  0.  0.
240  2.39  0.  0.
241  2.40  0.  0.
242  2.41  0.  0.
243  2.42  0.  0.
244  2.43  0.  0.
245  2.44  0.  0.
246  2.45  0.  0.
247  2.46  0.  0.
248  2.47  0.  0.
249  2.48  0.  0.
250  2.49  0.  0.
251  2.50  0.  0.
252  2.51  0.  0.
253  2.52  0.  0.
254  2.53  0.  0.
255  2.54  0.  0.
256  2.55  0.  0.
257  2.56  0.  0.
258  2.57  0.  0.
259  2.58  0.  0.
260  2.59  0.  0.
261  2.60  0.  0.
262  2.61  0.  0.
263  2.62  0.  0.
264  2.63  0.  0.
265  2.64  0.  0.
266  2.65  0.  0.
267  2.66  0.  0.
268  2.67  0.  0.
269  2.68  0.  0.
270  2.69  0.  0.
271  2.70  0.  0.
272  2.71  0.  0.
273  2.72  0.  0.
274  2.73  0.  0.
275  2.74  0.  0.