Pm    ONCVPSP-4.0.1  r_core=   2.00379   1.60593   1.91015   1.60593
61.0000     15.0000      230112    zatom,zion,pspd
8      11   3     4   600     0    pspcod,pspxc,lmax,lloc,mmax,r2well
5.99000000  4.00000000  0.00000000    rchrg fchrg qchrg
2     2     2     2     0    nproj
1     1           extension_switch
0                         7.1089419697388E+00  4.8063801833339E-01
1  0.0000000000000E+00  7.4496853130768E-11 -3.3232801233130E-10
2  1.0000000000000E-02  3.7694852595778E-02 -3.6824900098155E-03
3  2.0000000000000E-02  7.5377165998524E-02 -7.4125770694701E-03
4  3.0000000000000E-02  1.1303421487573E-01 -1.1237115246138E-02
5  4.0000000000000E-02  1.5065290363454E-01 -1.5201480844259E-02
6  5.0000000000000E-02  1.8821958631907E-01 -1.9348853945404E-02
7  6.0000000000000E-02  2.2571989248750E-01 -2.3719524215899E-02
8  7.0000000000000E-02  2.6313856097387E-01 -2.8350228677712E-02
9  8.0000000000000E-02  3.0045928336545E-01 -3.3273528805744E-02
10  9.0000000000000E-02  3.3766455893400E-01 -3.8517233905342E-02
11  1.0000000000000E-01  3.7473556265167E-01 -4.4103877241942E-02
12  1.1000000000000E-01  4.1165202779810E-01 -5.0050250844615E-02
13  1.2000000000000E-01  4.4839214452739E-01 -5.6367004293088E-02
14  1.3000000000000E-01  4.8493247561260E-01 -6.3058312128997E-02
15  1.4000000000000E-01  5.2124789042299E-01 -7.0121613813812E-02
16  1.5000000000000E-01  5.5731151801620E-01 -7.7547429395373E-02
17  1.6000000000000E-01  5.9309472004706E-01 -8.5319253249394E-02
18  1.7000000000000E-01  6.2856708400630E-01 -9.3413527440509E-02
19  1.8000000000000E-01  6.6369643711020E-01 -1.0179969540678E-01
20  1.9000000000000E-01  6.9844888096605E-01 -1.1044033582175E-01
21  2.0000000000000E-01  7.3278884694098E-01 -1.1929137563627E-01
22  2.1000000000000E-01  7.6667917196538E-01 -1.2830238045916E-01
23  2.2000000000000E-01  8.0008119430761E-01 -1.3741691960748E-01
24  2.3000000000000E-01  8.3295486866679E-01 -1.4657300235507E-01
25  2.4000000000000E-01  8.6525889974647E-01 -1.5570358113762E-01
26  2.5000000000000E-01  8.9695089329599E-01 -1.6473711674419E-01
27  2.6000000000000E-01  9.2798752343938E-01 -1.7359819984512E-01
28  2.7000000000000E-01  9.5832471495614E-01 -1.8220822258224E-01
29  2.8000000000000E-01  9.8791783903510E-01 -1.9048609338585E-01
30  2.9000000000000E-01  1.0167219208933E+00 -1.9834898769039E-01
31  3.0000000000000E-01  1.0446918575376E+00 -2.0571312680186E-01
32  3.1000000000000E-01  1.0717826438490E+00 -2.1249457683035E-01
33  3.2000000000000E-01  1.0979496050886E+00 -2.1861005934401E-01
34  3.3000000000000E-01  1.1231486338615E+00 -2.2397776522890E-01
35  3.4000000000000E-01  1.1473364295306E+00 -2.2851816315647E-01
36  3.5000000000000E-01  1.1704707380457E+00 -2.3215479406582E-01
37  3.6000000000000E-01  1.1925105901502E+00 -2.3481504316438E-01
38  3.7000000000000E-01  1.2134165359353E+00 -2.3643088113544E-01
39  3.8000000000000E-01  1.2331508737498E+00 -2.3693956651451E-01
40  3.9000000000000E-01  1.2516778715191E+00 -2.3628430155576E-01
41  4.0000000000000E-01  1.2689639785997E+00 -2.3441483435106E-01
42  4.1000000000000E-01  1.2849780263796E+00 -2.3128800048452E-01
43  4.2000000000000E-01  1.2996914159405E+00 -2.2686819809936E-01
44  4.3000000000000E-01  1.3130782912150E+00 -2.2112779091571E-01
45  4.4000000000000E-01  1.3251156962060E+00 -2.1404743446086E-01
46  4.5000000000000E-01  1.3357837149831E+00 -2.0561632155205E-01
47  4.6000000000000E-01  1.3450655933279E+00 -1.9583234389584E-01
48  4.7000000000000E-01  1.3529478410703E+00 -1.8470216753114E-01
49  4.8000000000000E-01  1.3594203143328E+00 -1.7224122073592E-01
50  4.9000000000000E-01  1.3644762770858E+00 -1.5847359393088E-01
51  5.0000000000000E-01  1.3681124416047E+00 -1.4343185203773E-01
52  5.1000000000000E-01  1.3703289876106E+00 -1.2715676067648E-01
53  5.2000000000000E-01  1.3711295600707E+00 -1.0969692850390E-01
54  5.3000000000000E-01  1.3705212458250E+00 -9.1108368896266E-02
55  5.4000000000000E-01  1.3685145293958E+00 -7.1453985052471E-02
56  5.5000000000000E-01  1.3651232285215E+00 -5.0802983431289E-02
57  5.6000000000000E-01  1.3603644101338E+00 -2.9230221226554E-02
58  5.7000000000000E-01  1.3542582876669E+00 -6.8154943223324E-03
59  5.8000000000000E-01  1.3468281007487E+00  1.6357227155868E-02
60  5.9000000000000E-01  1.3380999784716E+00  4.0200607972325E-02
61  6.0000000000000E-01  1.3281027875755E+00  6.4624793345545E-02
62  6.1000000000000E-01  1.3168679669993E+00  8.9538282249865E-02
63  6.2000000000000E-01  1.3044293503614E+00  1.1484881940168E-01
64  6.3000000000000E-01  1.2908229780192E+00  1.4046429661134E-01
65  6.4000000000000E-01  1.2760869004321E+00  1.6629365401187E-01
66  6.5000000000000E-01  1.2602609746053E+00  1.9224777160392E-01
67  6.6000000000000E-01  1.2433866554299E+00  2.1824034158305E-01
68  6.7000000000000E-01  1.2255067837508E+00  2.4418871204287E-01
69  6.8000000000000E-01  1.2066653729967E+00  2.7001469287198E-01
70  6.9000000000000E-01  1.1869073961840E+00  2.9564531498615E-01
71  7.0000000000000E-01  1.1662785750742E+00  3.2101353445225E-01
72  7.1000000000000E-01  1.1448251732062E+00  3.4605887356745E-01
73  7.2000000000000E-01  1.1225937944579E+00  3.7072799154781E-01
74  7.3000000000000E-01  1.0996311887037E+00  3.9497517815130E-01
75  7.4000000000000E-01  1.0759840660342E+00  4.1876276430210E-01
76  7.5000000000000E-01  1.0516989208913E+00  4.4206144459125E-01
77  7.6000000000000E-01  1.0268218673444E+00  4.6485050739182E-01
78  7.7000000000000E-01  1.0013984866012E+00  4.8711796923889E-01
79  7.8000000000000E-01  9.7547368769718E-01  5.0886061107285E-01
80  7.9000000000000E-01  9.4909158216000E-01  5.3008391492340E-01
81  8.0000000000000E-01  9.2229537328788E-01  5.5080190060565E-01
82  8.1000000000000E-01  8.9512726051902E-01  5.7103686300352E-01
83  8.2000000000000E-01  8.6762835920991E-01  5.9081901151574E-01
84  8.3000000000000E-01  8.3983863597808E-01  6.1018601422522E-01
85  8.4000000000000E-01  8.1179685960591E-01  6.2918245031800E-01
86  8.5000000000000E-01  7.8354056734705E-01  6.4785917520583E-01
87  8.6000000000000E-01  7.5510604632703E-01  6.6627260369462E-01
88  8.7000000000000E-01  7.2652832958715E-01  6.8448391737713E-01
89  8.8000000000000E-01  6.9784120618614E-01  7.0255820320256E-01
90  8.9000000000000E-01  6.6907724464982E-01  7.2056353088578E-01
91  9.0000000000000E-01  6.4026782894496E-01  7.3856997745308E-01
92  9.1000000000000E-01  6.1144320605182E-01  7.5664860777672E-01
93  9.2000000000000E-01  5.8263254412003E-01  7.7487042042305E-01
94  9.3000000000000E-01  5.5386400011651E-01  7.9330526852208E-01
95  9.4000000000000E-01  5.2516479581064E-01  8.1202076566176E-01
96  9.5000000000000E-01  4.9656130089264E-01  8.3108118701384E-01
97  9.6000000000000E-01  4.6807912198508E-01  8.5054637600988E-01
98  9.7000000000000E-01  4.3974319628418E-01  8.7047066690968E-01
99  9.8000000000000E-01  4.1157788855771E-01  8.9090183353803E-01
100  9.9000000000000E-01  3.8360709022756E-01  9.1188007431647E-01
101  1.0000000000000E+00  3.5585431927794E-01  9.3343704348689E-01
102  1.0100000000000E+00  3.2834281975305E-01  9.5559493811689E-01
103  1.0200000000000E+00  3.0109565963946E-01  9.7836565010444E-01
104  1.0300000000000E+00  2.7413582596812E-01  1.0017499919599E+00
105  1.0400000000000E+00  2.4748631601592E-01  1.0257370046521E+00
106  1.0500000000000E+00  2.2117022353741E-01  1.0503033552654E+00
107  1.0600000000000E+00  1.9521081901047E-01  1.0754128316321E+00
108  1.0700000000000E+00  1.6963162293553E-01  1.1010159404960E+00
109  1.0800000000000E+00  1.4445647128309E-01  1.1270496151245E+00
110  1.0900000000000E+00  1.1970957223974E-01  1.1534370376366E+00
111  1.1000000000000E+00  9.5415553454801E-02  1.1800875806518E+00
112  1.1100000000000E+00  7.1599499039255E-02  1.2068968722051E+00
113  1.1200000000000E+00  4.8286975613229E-02  1.2337469872101E+00
114  1.1300000000000E+00  2.5504046738289E-02  1.2605067681061E+00
115  1.1400000000000E+00  3.2772751049007E-03  1.2870322766843E+00
116  1.1500000000000E+00 -1.8366288125908E-02  1.3131673784659E+00
117  1.1600000000000E+00 -3.9399127404736E-02  1.3387444603984E+00
118  1.1700000000000E+00 -5.9793300860208E-02  1.3635852820435E+00
119  1.1800000000000E+00 -7.9520492896544E-02  1.3875019598518E+00
120  1.1900000000000E+00 -9.8552081859159E-02  1.4102980835494E+00
121  1.2000000000000E+00 -1.1685922329679E-01  1.4317699630955E+00
122  1.2100000000000E+00 -1.3441294933985E-01  1.4517080040970E+00
123  1.2200000000000E+00 -1.5118428470343E-01  1.4698982089801E+00
124  1.2300000000000E+00 -1.6714437980675E-01  1.4861238006064E+00
125  1.2400000000000E+00 -1.8226466147511E-01  1.5001669643638E+00
126  1.2500000000000E+00 -1.9651700165344E-01  1.5118107040557E+00
127  1.2600000000000E+00 -2.0987390450621E-01  1.5208408061209E+00
128  1.2700000000000E+00 -2.2230871220433E-01  1.5270479058366E+00
129  1.2800000000000E+00 -2.3379582960031E-01  1.5302296481639E+00
130  1.2900000000000E+00 -2.4431096786219E-01  1.5301929347461E+00
131  1.3000000000000E+00 -2.5383140697099E-01  1.5267562472752E+00
132  1.3100000000000E+00 -2.6233627677907E-01  1.5197520359401E+00
133  1.3200000000000E+00 -2.6980685607092E-01  1.5090291599492E+00
134  1.3300000000000E+00 -2.7622688875779E-01  1.4944553651492E+00
135  1.3400000000000E+00 -2.8158291596964E-01  1.4759197815131E+00
136  1.3500000000000E+00 -2.8586462236790E-01  1.4533354206935E+00
137  1.3600000000000E+00 -2.8906519449243E-01  1.4266416509202E+00
138  1.3700000000000E+00 -2.9118168836079E-01  1.3958066232148E+00
139  1.3800000000000E+00 -2.9221540285894E-01  1.3608296191816E+00
140  1.3900000000000E+00 -2.9217225467953E-01  1.3217432864361E+00
141  1.4000000000000E+00 -2.9106314968383E-01  1.2786157230657E+00
142  1.4100000000000E+00 -2.8890434456673E-01  1.2315523673011E+00
143  1.4200000000000E+00 -2.8571779158977E-01  1.1806976427885E+00
144  1.4300000000000E+00 -2.8153145790604E-01  1.1262363034648E+00
145  1.4400000000000E+00 -2.7637960961651E-01  1.0683944149496E+00
146  1.4500000000000E+00 -2.7030304917650E-01  1.0074399016288E+00
147  1.4600000000000E+00 -2.6334929309078E-01  9.4368258008189E-01
148  1.4700000000000E+00 -2.5557267499288E-01  8.7747359019707E-01
149  1.4800000000000E+00 -2.4703435719269E-01  8.0920412518003E-01
150  1.4900000000000E+00 -2.3780223158012E-01  7.3930335061863E-01
151  1.5000000000000E+00 -2.2795068838075E-01  6.6823539075848E-01
152  1.5100000000000E+00 -2.1756022867364E-01  5.9649524717521E-01
153  1.5200000000000E+00 -2.0671689377535E-01  5.2460350096825E-01
154  1.5300000000000E+00 -1.9551148156621E-01  4.5309963443180E-01
155  1.5400000000000E+00 -1.8403851656986E-01  3.8253379180551E-01
156  1.5500000000000E+00 -1.7239493708437E-01  3.1345678110942E-01
157  1.5600000000000E+00 -1.6067845887977E-01  2.4640810010700E-01
158  1.5700000000000E+00 -1.4898557094330E-01  1.8190174921649E-01
159  1.5800000000000E+00 -1.3740911330683E-01  1.2040956376942E-01
160  1.5900000000000E+00 -1.2603538195798E-01  6.2341773549918E-02
161  1.6000000000000E+00 -1.1494077982235E-01  8.0250800494068E-03
162  1.6100000000000E+00 -1.0418752239212E-01 -4.2325425433335E-02
163  1.6200000000000E+00 -9.3822575282235E-02 -8.8607554898898E-02
164  1.6300000000000E+00 -8.3884165966702E-02 -1.3077516691064E-01
165  1.6400000000000E+00 -7.4406040268319E-02 -1.6880291812068E-01
166  1.6500000000000E+00 -6.5417145833850E-02 -2.0268833350219E-01
167  1.6600000000000E+00 -5.6941618871455E-02 -2.3245150955758E-01
168  1.6700000000000E+00 -4.8998744867520E-02 -2.5813515699003E-01
169  1.6800000000000E+00 -4.1602955492874E-02 -2.7980446631509E-01
170  1.6900000000000E+00 -3.4763864564406E-02 -2.9754677637095E-01
171  1.7000000000000E+00 -2.8486341460553E-02 -3.1147105837921E-01
172  1.7100000000000E+00 -2.2770621557647E-02 -3.2170721777420E-01
173  1.7200000000000E+00 -1.7612452912685E-02 -3.2840521775198E-01
174  1.7300000000000E+00 -1.3003278093345E-02 -3.3173403012151E-01
175  1.7400000000000E+00 -8.9304497479840E-03 -3.3188042056493E-01
176  1.7500000000000E+00 -5.3774781528350E-03 -3.2904757729794E-01
177  1.7600000000000E+00 -2.3243087809137E-03 -3.2345359290280E-01
178  1.7700000000000E+00  2.5237271181330E-04 -3.1532981301480E-01
179  1.7800000000000E+00  2.3788099252086E-03 -3.0491905995933E-01
180  1.7900000000000E+00  4.0838230226549E-03 -2.9247374982924E-01
181  1.8000000000000E+00  5.3984381171455E-03 -2.7825392630632E-01
182  1.8100000000000E+00  6.3554978979587E-03 -2.6252520015702E-01
183  1.8200000000000E+00  6.9892621198455E-03 -2.4555664686526E-01
184  1.8300000000000E+00  7.3349977173276E-03 -2.2761865490602E-01
185  1.8400000000000E+00  7.4285636200069E-03 -2.0898075282819E-01
186  1.8500000000000E+00  7.3059936522520E-03 -1.8990943178639E-01
187  1.8600000000000E+00  7.0030812274118E-03 -1.7066598231408E-01
188  1.8700000000000E+00  6.5549716983206E-03 -1.5150437227578E-01
189  1.8800000000000E+00  5.9957446692877E-03 -1.3266910318802E-01
190  1.8900000000000E+00  5.3580746941872E-03 -1.1439338298459E-01
191  1.9000000000000E+00  4.6728031560909E-03 -9.6897003193495E-02
192  1.9100000000000E+00  3.9676245039042E-03 -8.0380804697465E-02
193  1.9200000000000E+00  3.2660727306974E-03 -6.5022213378611E-02
194  1.9300000000000E+00  2.5924792434434E-03 -5.0993893883747E-02
195  1.9400000000000E+00  1.9684433809596E-03 -3.8450121503008E-02
196  1.9500000000000E+00  1.4119682000900E-03 -2.7523154421935E-02
197  1.9600000000000E+00  9.3738635681213E-04 -1.8322630819765E-02
198  1.9700000000000E+00  5.5522332604806E-04 -1.0935918164917E-02
199  1.9800000000000E+00  2.7173826085118E-04 -5.4204014454985E-03
200  1.9900000000000E+00  8.8983609770398E-05 -1.8066753659076E-03
201  2.0000000000000E+00  9.6621521803400E-06 -2.0120291466939E-04
202  2.0100000000000E+00 -2.9479576298952E-06  6.2022576423863E-05
203  2.0200000000000E+00  9.3052927666667E-07 -1.9282404225524E-05
204  2.03 -0.  0.
205  2.04 -0.  0.
206  2.05 -0. -0.
207  2.06  0.  0.
208  2.07  0.  0.
209  2.08  0.  0.
210  2.09  0.  0.
211  2.10  0.  0.
212  2.11  0.  0.
213  2.12  0.  0.
214  2.13  0.  0.
215  2.14  0.  0.
216  2.15  0.  0.
217  2.16  0.  0.
218  2.17  0.  0.
219  2.18  0.  0.
220  2.19  0.  0.
221  2.20  0.  0.
222  2.21  0.  0.
223  2.22  0.  0.
224  2.23  0.  0.
225  2.24  0.  0.
226  2.25  0.  0.
227  2.26  0.  0.
228  2.27  0.  0.
229  2.28  0.  0.
230  2.29  0.  0.
231  2.30  0.  0.
232  2.31  0.  0.
233  2.32  0.  0.
234  2.33  0.  0.
235  2.34  0.  0.
236  2.35  0.  0.
237  2.36  0.  0.
238  2.37  0.  0.
239  2.38  0.  0.
240  2.39  0.  0.
241  2.40  0.  0.
242  2.41  0.  0.
243  2.42  0.  0.
244  2.43  0.  0.
245  2.44  0.  0.
246  2.45  0.  0.
247  2.46  0.  0.
248  2.47  0.  0.
249  2.48  0.  0.
250  2.49  0.  0.
251  2.50  0.  0.
252  2.51  0.  0.
253  2.52  0.  0.
254  2.53  0.  0.
255  2.54  0.  0.
256  2.55  0.  0.
257  2.56  0.  0.
258  2.57  0.  0.
259  2.58  0.  0.
260  2.59  0.  0.
261  2.60  0.  0.
262  2.61  0.  0.
263  2.62  0.  0.
264  2.63  0.  0.
265  2.64  0.  0.
266  2.65  0.  0.
267  2.66  0.  0.
268  2.67  0.  0.
269  2.68  0.  0.
270  2.69  0.  0.
271  2.70  0.  0.
272  2.71  0.  0.
273  2.72  0.  0.
274  2.73  0.  0.
275  2.74  0.  0.
276  2.75  0.  0.
277  2.76  0.  0.
278  2.77  0.  0.
279  2.78  0.  0.
280  2.79  0.  0.
281  2.80  0.  0.
282  2.81  0.  0.
283  2.82  0.  0.
284  2.83  0.  0.
285  2.84  0.  0.
286  2.85  0.  0.
287  2.86  0.  0.
288  2.87  0.  0.
289  2.88  0.  0.
290  2.89  0.  0.
291  2.90  0.  0.
292  2.91  0.  0.
293  2.92  0.  0.
294  2.93  0.  0.
295  2.94  0.  0.
296  2.95  0.  0.
297  2.96  0.  0.
298  2.97  0.  0.
299  2.98  0.  0.
300  2.99  0.  0.
301  3.00  0.  0.
302  3.01  0.  0.
303  3.02  0.  0.
304  3.03  0.  0.
305  3.04  0.  0.
306  3.05  0.  0.
307  3.06  0.  0.
308  3.07  0.  0.
309  3.08  0.  0.
310  3.09  0.  0.
311  3.10  0.  0.
312  3.11  0.  0.
313  3.12  0.  0.
314  3.13  0.  0.
315  3.14  0.  0.
316  3.15  0.  0.
317  3.16  0.  0.
318  3.17  0.  0.
319  3.18  0.  0.
320  3.19  0.  0.
321  3.20  0.  0.
322  3.21  0.  0.
323  3.22  0.  0.
324  3.23  0.  0.
325  3.24  0.  0.
326  3.25  0.  0.
327  3.26  0.  0.
328  3.27  0.  0.
329  3.28  0.  0.
330  3.29  0.  0.
331  3.30  0.  0.
332  3.31  0.  0.
333  3.32  0.  0.
334  3.33  0.  0.
335  3.34  0.  0.
336  3.35  0.  0.
337  3.36  0.  0.
338  3.37  0.  0.
339  3.38  0.  0.
340  3.39  0.  0.
341  3.40  0.  0.
342  3.41  0.  0.
343  3.42  0.  0.
344  3.43  0.  0.
345  3.44  0.  0.
346  3.45  0.  0.
347  3.46  0.  0.
348  3.47  0.  0.
349  3.48  0.  0.
350  3.49  0.  0.
351  3.50  0.  0.
352  3.51  0.  0.
353  3.52  0.  0.
354  3.53  0.  0.
355  3.54  0.  0.
356  3.55  0.  0.
357  3.56  0.  0.
358  3.57  0.  0.
359  3.58  0.  0.
360  3.59  0.  0.
361  3.60  0.  0.
362  3.61  0.  0.
363  3.62  0.  0.
364  3.63  0.  0.
365  3.64  0.  0.
366  3.65  0.  0.
367  3.66  0.  0.
368  3.67  0.  0.
369  3.68  0.  0.
370  3.69  0.  0.
371  3.70  0.  0.
372  3.71  0.  0.
373  3.72  0.  0.
374  3.73  0.  0.
375  3.74  0.  0.
376  3.75  0.  0.
377  3.76  0.  0.
378  3.77  0.  0.
379  3.78  0.  0.
380  3.79  0.  0.
381  3.80  0.  0.
382  3.81  0.  0.
383  3.82  0.  0.
384  3.83  0.  0.
385  3.84  0.  0.
386  3.85  0.  0.
387  3.86  0.  0.
388  3.87  0.  0.
389  3.88  0.  0.
390  3.89  0.  0.
391  3.90  0.  0.
392  3.91  0.  0.
393  3.92  0.  0.
394  3.93  0.  0.
395  3.94  0.  0.
396  3.95  0.  0.
397  3.96  0.  0.
398  3.97  0.  0.
399  3.98  0.  0.
400  3.99  0.  0.
401  4.00  0.  0.
402  4.01  0.  0.
403  4.02  0.  0.
404  4.03  0.  0.
405  4.04  0.  0.
406  4.05  0.  0.
407  4.06  0.  0.
408  4.07  0.  0.
409  4.08  0.  0.
410  4.09  0.  0.
411  4.10  0.  0.
412  4.11  0.  0.
413  4.12  0.  0.
414  4.13  0.  0.
415  4.14  0.  0.
416  4.15  0.  0.
417  4.16  0.  0.
418  4.17  0.  0.
419  4.18  0.  0.
420  4.19  0.  0.
421  4.20  0.  0.
422  4.21  0.  0.
423  4.22  0.  0.
424  4.23  0.  0.
425  4.24  0.  0.
426  4.25  0.  0.
427  4.26  0.  0.
428  4.27  0.  0.
429  4.28  0.  0.
430  4.29  0.  0.
431  4.30  0.  0.
432  4.31  0.  0.
433  4.32  0.  0.
434  4.33  0.  0.
435  4.34  0.  0.
436  4.35  0.  0.
437  4.36  0.  0.
438  4.37  0.  0.
439  4.38  0.  0.
440  4.39  0.  0.
441  4.40  0.  0.
442  4.41  0.  0.
443  4.42  0.  0.
444  4.43  0.  0.
445  4.44  0.  0.
446  4.45  0.  0.
447  4.46  0.  0.
448  4.47  0.  0.
449  4.48  0.  0.
450  4.49  0.  0.
451  4.50  0.  0.
452  4.51  0.  0.
453  4.52  0.  0.
454  4.53  0.  0.
455  4.54  0.  0.
456  4.55  0.  0.
457  4.56  0.  0.
458  4.57  0.  0.
459  4.58  0.  0.
460  4.59  0.  0.
461  4.60  0.  0.
462  4.61  0.  0.
463  4.62  0.  0.
464  4.63  0.  0.
465  4.64  0.  0.
466  4.65  0.  0.
467  4.66  0.  0.
468  4.67  0.  0.
469  4.68  0.  0.
470  4.69  0.  0.
471  4.70  0.  0.
472  4.71  0.  0.
473  4.72  0.  0.
474  4.73  0.  0.
475  4.74  0.  0.
476  4.75  0.  0.
477  4.76  0.  0.
478  4.77  0.  0.
479  4.78  0.  0.
480  4.79  0.  0.
481  4.80  0.  0.
482  4.81  0.  0.
483  4.82  0.  0.
484  4.83  0.  0.
485  4.84  0.  0.
486  4.85  0.  0.
487  4.86  0.  0.
488  4.87  0.  0.
489  4.88  0.  0.
490  4.89  0.  0.
491  4.90  0.  0.
492  4.91  0.  0.
493  4.92  0.  0.
494  4.93  0.  0.
495  4.94  0.  0.
496  4.95  0.  0.
497  4.96  0.  0.
498  4.97  0.  0.
499  4.98  0.  0.
500  4.99  0.  0.
501  5.00  0.  0.
502  5.01  0.  0.
503  5.02  0.  0.
504  5.03  0.  0.
505  5.04  0.  0.
506  5.05  0.  0.
507  5.06  0.  0.
508  5.07  0.  0.
509  5.08  0.  0.
510  5.09  0.  0.
511  5.10  0.  0.
512  5.11  0.  0.
513  5.12  0.  0.
514  5.13  0.  0.
515  5.14  0.  0.
516  5.15  0.  0.
517  5.16  0.  0.
518  5.17  0.  0.
519  5.18  0.  0.
520  5.19  0.  0.
521  5.20  0.  0.
522  5.21  0.  0.
523  5.22  0.  0.
524  5.23  0.  0.
525  5.24  0.  0.
526  5.25  0.  0.
527  5.26  0.  0.
528  5.27  0.  0.
529  5.28  0.  0.
530  5.29  0.  0.
531  5.30  0.  0.
532  5.31  0.  0.
533  5.32  0.  0.
534  5.33  0.  0.
535  5.34  0.  0.
536  5.35  0.  0.
537  5.36  0.  0.
538  5.37  0.  0.
539  5.38  0.  0.
540  5.39  0.  0.
541  5.40  0.  0.
542  5.41  0.  0.
543  5.42  0.  0.
544  5.43  0.  0.
545  5.44  0.  0.
546  5.45  0.  0.
547  5.46  0.  0.
548  5.47  0.  0.
549  5.48  0.  0.
550  5.49  0.  0.
551  5.50  0.  0.
552  5.51  0.  0.
553  5.52  0.  0.
554  5.53  0.  0.
555  5.54  0.  0.
556  5.55  0.  0.
557  5.56  0.  0.
558  5.57  0.  0.
559  5.58  0.  0.
560  5.59  0.  0.
561  5.60  0.  0.
562  5.61  0.  0.
563  5.62  0.  0.
564  5.63  0.  0.
565  5.64  0.  0.
566  5.65  0.  0.
567  5.66  0.  0.
568  5.67  0.  0.
569  5.68  0.  0.
570  5.69  0.  0.
571  5.70  0.  0.
572  5.71  0.  0.
573  5.72  0.  0.
574  5.73  0.  0.
575  5.74  0.  0.
576  5.75  0.  0.
577  5.76  0.  0.
578  5.77  0.  0.
579  5.78  0.  0.
580  5.79  0.  0.
581  5.80  0.  0.
582  5.81  0.  0.
583  5.82  0.  0.
584  5.83  0.  0.
585  5.84  0.  0.
586  5.85  0.  0.
587  5.86  0.  0.
588  5.87  0.  0.
589  5.88  0.  0.
590  5.89  0.  0.
591  5.90  0.  0.
592  5.91  0.  0.
593  5.92  0.  0.
594  5.93  0.  0.
595  5.94  0.  0.
596  5.95  0.  0.
597  5.96  0.  0.
598  5.97  0.  0.
599  5.98  0.  0.
600  5.99  0.  0.
1                         4.8360246887264E+00  5.3219875681892E-01
1  0.0000000000000E+00  1.0230962507740E-08 -5.8878019987274E-08
2  1.0000000000000E-02  1.3761460523602E-03 -3.3548233759075E-03
3  2.0000000000000E-02  5.4884780268857E-03 -1.3334757254550E-02
4  3.0000000000000E-02  1.2288982729491E-02 -2.9687949575552E-02
5  4.0000000000000E-02  2.1698649988002E-02 -5.2000467890523E-02
6  5.0000000000000E-02  3.3608969400296E-02 -7.9704910276213E-02
7  6.0000000000000E-02  4.7883984242029E-02 -1.1209222186502E-01
8  7.0000000000000E-02  6.4362861961697E-02 -1.4832648375985E-01
9  8.0000000000000E-02  8.2862930459819E-02 -1.8746238222226E-01
10  9.0000000000000E-02  1.0318312010356E-01 -2.2846501276459E-01
11  1.0000000000000E-01  1.2510774334789E-01 -2.7023162716516E-01
12  1.1000000000000E-01  1.4841053707767E-01 -3.1161489236452E-01
13  1.2000000000000E-01  1.7285888748441E-01 -3.5144719945120E-01
14  1.3000000000000E-01  1.9821815355220E-01 -3.8856553910991E-01
15  1.4000000000000E-01  2.2425600312477E-01 -4.2183644741898E-01
16  1.5000000000000E-01  2.5074667510332E-01 -4.5018052300479E-01
17  1.6000000000000E-01  2.7747508259590E-01 -4.7259602336293E-01
18  1.7000000000000E-01  3.0424067478138E-01 -4.8818106453150E-01
19  1.8000000000000E-01  3.3086097981406E-01 -4.9615397395896E-01
20  1.9000000000000E-01  3.5717475719242E-01 -4.9587138087851E-01
21  2.0000000000000E-01  3.8304469553675E-01 -4.8684367114704E-01
22  2.1000000000000E-01  4.0835960052177E-01 -4.6874748353263E-01
23  2.2000000000000E-01  4.3303602762755E-01 -4.4143498090491E-01
24  2.3000000000000E-01  4.5701932521653E-01 -4.0493969163341E-01
25  2.4000000000000E-01  4.8028406500961E-01 -3.5947878256285E-01
26  2.5000000000000E-01  5.0283384909957E-01 -3.0545169395825E-01
27  2.6000000000000E-01  5.2470049497357E-01 -2.4343513748461E-01
28  2.7000000000000E-01  5.4594261238172E-01 -1.7417452925684E-01
29  2.8000000000000E-01  5.6664359804504E-01 -9.8571999904953E-02
30  2.9000000000000E-01  5.8690908590918E-01 -1.7671191105368E-02
31  3.0000000000000E-01  6.0686390169014E-01  6.7360888175608E-02
32  3.1000000000000E-01  6.2664858060853E-01  1.5525461363224E-01
33  3.2000000000000E-01  6.4641551626898E-01  2.4466072092073E-01
34  3.3000000000000E-01  6.6632481642964E-01  3.3417507385653E-01
35  3.4000000000000E-01  6.8653994776612E-01  4.2236475748710E-01
36  3.5000000000000E-01  7.0722325653377E-01  5.0779499925879E-01
37  3.6000000000000E-01  7.2853145516909E-01  5.8905640213781E-01
38  3.7000000000000E-01  7.5061116627609E-01  6.6479196400663E-01
39  3.8000000000000E-01  7.7359461507685E-01  7.3372335817642E-01
40  3.9000000000000E-01  7.9759555926472E-01  7.9467596047675E-01
41  4.0000000000000E-01  8.2270554131165E-01  8.4660212896132E-01
42  4.1000000000000E-01  8.4899054271251E-01  8.8860227246507E-01
43  4.2000000000000E-01  8.7648811249354E-01  9.1994328354473E-01
44  4.3000000000000E-01  9.0520503369646E-01  9.4007395903367E-01
45  4.4000000000000E-01  9.3511558162969E-01  9.4863708668280E-01
46  4.5000000000000E-01  9.6616041663418E-01  9.4547793813471E-01
47  4.6000000000000E-01  9.9824614214843E-01  9.3064897564860E-01
48  4.7000000000000E-01  1.0312455461973E+00  9.0441065131077E-01
49  4.8000000000000E-01  1.0649985313111E+00  8.6722825159692E-01
50  4.9000000000000E-01  1.0993137245511E+00  8.1976481569959E-01
51  5.0000000000000E-01  1.1339707460338E+00  7.6287023156785E-01
52  5.1000000000000E-01  1.1687231013558E+00  6.9756668768379E-01
53  5.2000000000000E-01  1.2033016508855E+00  6.2503072980202E-01
54  5.3000000000000E-01  1.2374185972403E+00  5.4657223882432E-01
55  5.4000000000000E-01  1.2707719216430E+00  4.6361070737048E-01
56  5.5000000000000E-01  1.3030501904586E+00  3.7764924722662E-01
57  5.6000000000000E-01  1.3339376452444E+00  2.9024680661912E-01
58  5.7000000000000E-01  1.3631194832588E+00  2.0298911422750E-01
59  5.8000000000000E-01  1.3902872307171E+00  1.1745889523007E-01
60  5.9000000000000E-01  1.4151441082391E+00  3.5205922861712E-02
61  6.0000000000000E-01  1.4374102869943E+00 -4.2282523464137E-02
62  6.1000000000000E-01  1.4568279350315E+00 -1.1361022567869E-01
63  6.2000000000000E-01  1.4731659561898E+00 -1.7749906654665E-01
64  6.3000000000000E-01  1.4862243287816E+00 -2.3281401221247E-01
65  6.4000000000000E-01  1.4958379578467E+00 -2.7858554393426E-01
66  6.5000000000000E-01  1.5018799630766E+00 -3.1402908984748E-01
67  6.6000000000000E-01  1.5042643343753E+00 -3.3856106121088E-01
68  6.7000000000000E-01  1.5029478982594E+00 -3.5181115913604E-01
69  6.8000000000000E-01  1.4979315507270E+00 -3.5363068618202E-01
70  6.9000000000000E-01  1.4892607255981E+00 -3.4409667115813E-01
71  7.0000000000000E-01  1.4770250814095E+00 -3.2351169365103E-01
72  7.1000000000000E-01  1.4613574044778E+00 -2.9239937573211E-01
73  7.2000000000000E-01  1.4424317404395E+00 -2.5149559047917E-01
74  7.3000000000000E-01  1.4204607811769E+00 -2.0173551881879E-01
75  7.4000000000000E-01  1.3956925482493E+00 -1.4423676620366E-01
76  7.5000000000000E-01  1.3684064275065E+00 -8.0278827243086E-02
77  7.6000000000000E-01  1.3389086222029E+00 -1.1279258137164E-02
78  7.7000000000000E-01  1.3075271034069E+00  6.1233017782885E-02
79  7.8000000000000E-01  1.2746061465824E+00  1.3564678821425E-01
80  7.9000000000000E-01  1.2405005517112E+00  2.1029948137466E-01
81  8.0000000000000E-01  1.2055696510507E+00  2.8350937499617E-01
82  8.1000000000000E-01  1.1701712134347E+00  3.5360848405717E-01
83  8.2000000000000E-01  1.1346553568297E+00  4.1897550870902E-01
84  8.3000000000000E-01  1.0993585815798E+00  4.7806821764255E-01
85  8.4000000000000E-01  1.0645980353823E+00  5.2945464769398E-01
86  8.5000000000000E-01  1.0306661175451E+00  5.7184251778990E-01
87  8.6000000000000E-01  9.9782552453833E-01  6.0410628412384E-01
88  8.7000000000000E-01  9.6630483135049E-01  6.2531130328165E-01
89  8.8000000000000E-01  9.3629469382831E-01  6.3473462020435E-01
90  8.9000000000000E-01  9.0794474618087E-01  6.3188195751803E-01
91  9.0000000000000E-01  8.8136125535569E-01  6.1650055080308E-01
92  9.1000000000000E-01  8.5660558027821E-01  5.8858754958681E-01
93  9.2000000000000E-01  8.3369346923375E-01  5.4839378485190E-01
94  9.3000000000000E-01  8.1259521323470E-01  4.9642278916192E-01
95  9.4000000000000E-01  7.9323665734466E-01  4.3342504352378E-01
96  9.5000000000000E-01  7.7550105591719E-01  3.6038751421071E-01
97  9.6000000000000E-01  7.5923174185626E-01  2.7851863126341E-01
98  9.7000000000000E-01  7.4423556461579E-01  1.8922894661048E-01
99  9.8000000000000E-01  7.3028703701806E-01  9.4107792075647E-02
100  9.9000000000000E-01  7.1713311737291E-01 -5.1036656416709E-03
101  1.0000000000000E+00  7.0449854106824E-01 -1.0654250600524E-01
102  1.0100000000000E+00  6.9209160503444E-01 -2.0825674311806E-01
103  1.0200000000000E+00  6.7961029945975E-01 -3.0824004096028E-01
104  1.0300000000000E+00  6.6674867402922E-01 -4.0446783311877E-01
105  1.0400000000000E+00  6.5320332092521E-01 -4.9493419450557E-01
106  1.0500000000000E+00  6.3867985396387E-01 -5.7768879428944E-01
107  1.0600000000000E+00  6.2289926260881E-01 -6.5087325331512E-01
108  1.0700000000000E+00  6.0560402123469E-01 -7.1275623589195E-01
109  1.0800000000000E+00  5.8656383786396E-01 -7.6176662478520E-01
110  1.0900000000000E+00  5.6558093264634E-01 -7.9652415944311E-01
111  1.1000000000000E+00  5.4249474443254E-01 -8.1586696010173E-01
112  1.1100000000000E+00  5.1718597383017E-01 -8.1887541400928E-01
113  1.1200000000000E+00  4.8957988288102E-01 -8.0489196330901E-01
114  1.1300000000000E+00  4.5964878479549E-01 -7.7353640621538E-01
115  1.1400000000000E+00  4.2741367175311E-01 -7.2471640254300E-01
116  1.1500000000000E+00  3.9294494436840E-01 -6.5863296000200E-01
117  1.1600000000000E+00  3.5636222273984E-01 -5.7578076736869E-01
118  1.1700000000000E+00  3.1783323575511E-01 -4.7694333309012E-01
119  1.1800000000000E+00  2.7757180216711E-01 -3.6318298114930E-01
120  1.1900000000000E+00  2.3583493366549E-01 -2.3582584891671E-01
121  1.2000000000000E+00  1.9291910626921E-01 -9.6442121592710E-02
122  1.2100000000000E+00  1.4915576180059E-01  5.3178175595216E-02
123  1.2200000000000E+00  1.0490611539882E-01  2.1105342622649E-01
124  1.2300000000000E+00  6.0555357998438E-02  3.7504223774238E-01
125  1.2400000000000E+00  1.6506354005218E-02  5.4287828318025E-01
126  1.2500000000000E+00 -2.6827056091745E-02  7.1220757497945E-01
127  1.2600000000000E+00 -6.9027030855259E-02  8.8062753154540E-01
128  1.2700000000000E+00 -1.0967885806550E-01  1.0457271643599E+00
129  1.2800000000000E+00 -1.4837811396898E-01  1.2051276922925E+00
130  1.2900000000000E+00 -1.8473772472499E-01  1.3565228810901E+00
131  1.3000000000000E+00 -2.1839480451494E-01  1.4977184098607E+00
132  1.3100000000000E+00 -2.4901714836824E-01  1.6266695824325E+00
133  1.3200000000000E+00 -2.7630926357431E-01  1.7415167297333E+00
134  1.3300000000000E+00 -3.0001783143094E-01  1.8406176889668E+00