Sm    ONCVPSP-4.0.1  r_core=   2.00717   1.60864   1.90196   1.60864
62.0000     16.0000      230112    zatom,zion,pspd
8      11   3     4   600     0    pspcod,pspxc,lmax,lloc,mmax,r2well
5.99000000  4.00000000  0.00000000    rchrg fchrg qchrg
2     2     2     2     0    nproj
1     1           extension_switch
0                         6.9532782428972E+00  4.9167182670817E-01
1  0.0000000000000E+00  7.9803275099266E-11 -3.5246723595339E-10
2  1.0000000000000E-02  3.9384613039244E-02 -3.6113249334146E-03
3  2.0000000000000E-02  7.8752521457194E-02 -7.2695367117563E-03
4  3.0000000000000E-02  1.1808683639873E-01 -1.1020752330754E-02
5  4.0000000000000E-02  1.5737030265793E-01 -1.4909557734631E-02
6  5.0000000000000E-02  1.9658512077438E-01 -1.8978263817209E-02
7  6.0000000000000E-02  2.3571277539848E-01 -2.3266188003131E-02
8  7.0000000000000E-02  2.7473387192103E-01 -2.7808969518419E-02
9  8.0000000000000E-02  3.1362798328248E-01 -3.2637926107086E-02
10  9.0000000000000E-02  3.5237350877891E-01 -3.7779459516544E-02
11  1.0000000000000E-01  3.9094754656589E-01 -4.3254516563497E-02
12  1.1000000000000E-01  4.2932578142895E-01 -4.9078112008801E-02
13  1.2000000000000E-01  4.6748238924152E-01 -5.5258918820428E-02
14  1.3000000000000E-01  5.0538995936977E-01 -6.1798930694810E-02
15  1.4000000000000E-01  5.4301943611000E-01 -6.8693200945156E-02
16  1.5000000000000E-01  5.8034008005915E-01 -7.5929661058857E-02
17  1.6000000000000E-01  6.1731945012610E-01 -8.3489021383135E-02
18  1.7000000000000E-01  6.5392340669037E-01 -9.1344755526452E-02
19  1.8000000000000E-01  6.9011613620913E-01 -9.9463169172502E-02
20  1.9000000000000E-01  7.2586019736440E-01 -1.0780355310259E-01
21  2.0000000000000E-01  7.6111658863203E-01 -1.1631841931984E-01
22  2.1000000000000E-01  7.9584483694442E-01 -1.2495381827455E-01
23  2.2000000000000E-01  8.3000310691241E-01 -1.3364973431350E-01
24  2.3000000000000E-01  8.6354832986932E-01 -1.4234055562528E-01
25  2.4000000000000E-01  8.9643635180537E-01 -1.5095561413867E-01
26  2.5000000000000E-01  9.2862209907341E-01 -1.5941979005995E-01
27  2.6000000000000E-01  9.6005976057082E-01 -1.6765417501500E-01
28  2.7000000000000E-01  9.9070298493805E-01 -1.7557678710273E-01
29  2.8000000000000E-01  1.0205050911635E+00 -1.8310333057247E-01
30  2.9000000000000E-01  1.0494192908491E+00 -1.9014799231799E-01
31  3.0000000000000E-01  1.0773989202716E+00 -1.9662426693965E-01
32  3.1000000000000E-01  1.1043976802735E+00 -2.0244580176802E-01
33  3.2000000000000E-01  1.1303698819346E+00 -2.0752725297342E-01
34  3.3000000000000E-01  1.1552706959109E+00 -2.1178514370715E-01
35  3.4000000000000E-01  1.1790564032861E+00 -2.1513871513581E-01
36  3.5000000000000E-01  1.2016846457567E+00 -2.1751076124079E-01
37  3.6000000000000E-01  1.2231146729690E+00 -2.1882843836107E-01
38  3.7000000000000E-01  1.2433075848479E+00 -2.1902404065956E-01
39  3.8000000000000E-01  1.2622265667940E+00 -2.1803573298759E-01
40  3.9000000000000E-01  1.2798371156855E+00 -2.1580823300961E-01
41  4.0000000000000E-01  1.2961072547032E+00 -2.1229343492426E-01
42  4.1000000000000E-01  1.3110077350923E+00 -2.0745096767624E-01
43  4.2000000000000E-01  1.3245122230924E+00 -2.0124868119039E-01
44  4.3000000000000E-01  1.3365974704007E+00 -1.9366305486835E-01
45  4.4000000000000E-01  1.3472434666824E+00 -1.8467952336291E-01
46  4.5000000000000E-01  1.3564335728025E+00 -1.7429271547855E-01
47  4.6000000000000E-01  1.3641546336338E+00 -1.6250660292847E-01
48  4.7000000000000E-01  1.3703970694766E+00 -1.4933455660317E-01
49  4.8000000000000E-01  1.3751549453259E+00 -1.3479930896049E-01
50  4.9000000000000E-01  1.3784260174195E+00 -1.1893282212479E-01
51  5.0000000000000E-01  1.3802117567122E+00 -1.0177606227228E-01
52  5.1000000000000E-01  1.3805173491278E+00 -8.3378681871618E-02
53  5.2000000000000E-01  1.3793516726544E+00 -6.3798612330437E-02
54  5.3000000000000E-01  1.3767272515572E+00 -4.3101570563735E-02
55  5.4000000000000E-01  1.3726601881893E+00 -2.1360483934323E-02
56  5.5000000000000E-01  1.3671700730836E+00  1.3451610887511E-03
57  5.6000000000000E-01  1.3602798742011E+00  2.4930040360334E-02
58  5.7000000000000E-01  1.3520158063964E+00  4.9303776595384E-02
59  5.8000000000000E-01  1.3424071823348E+00  7.4371779306615E-02
60  5.9000000000000E-01  1.3314862462540E+00  1.0003613179065E-01
61  6.0000000000000E-01  1.3192879921117E+00  1.2619651624457E-01
62  6.1000000000000E-01  1.3058499677885E+00  1.5275116761732E-01
63  6.2000000000000E-01  1.2912120671304E+00  1.7959784641808E-01
64  6.3000000000000E-01  1.2754163117064E+00  2.0663482041914E-01
65  6.4000000000000E-01  1.2585066242366E+00  2.3376184501081E-01
66  6.5000000000000E-01  1.2405285956975E+00  2.6088113188853E-01
67  6.6000000000000E-01  1.2215292481494E+00  2.8789829578420E-01
68  6.7000000000000E-01  1.2015567953441E+00  3.1472326909099E-01
69  6.8000000000000E-01  1.1806604031656E+00  3.4127117447554E-01
70  6.9000000000000E-01  1.1588899519304E+00  3.6746314591958E-01
71  7.0000000000000E-01  1.1362958025274E+00  3.9322708908341E-01
72  7.1000000000000E-01  1.1129285683115E+00  4.1849837243067E-01
73  7.2000000000000E-01  1.0888388945824E+00  4.4322044119288E-01
74  7.3000000000000E-01  1.0640772473762E+00  4.6734534697743E-01
75  7.4000000000000E-01  1.0386937131826E+00  4.9083418662566E-01
76  7.5000000000000E-01  1.0127378110648E+00  5.1365744480198E-01
77  7.6000000000000E-01  9.8625831851528E-01  5.3579523572986E-01
78  7.7000000000000E-01  9.5930311222420E-01  5.5723744047847E-01
79  7.8000000000000E-01  9.3191902476691E-01  5.7798373723245E-01
80  7.9000000000000E-01  9.0415171804590E-01  5.9804352303820E-01
81  8.0000000000000E-01  8.7604557413929E-01  6.1743572660023E-01
82  8.1000000000000E-01  8.4764360402488E-01  6.3618851279130E-01
83  8.2000000000000E-01  8.1898737446226E-01  6.5433888062698E-01
84  8.3000000000000E-01  7.9011695312983E-01  6.7193215752977E-01
85  8.4000000000000E-01  7.6107087193014E-01  6.8902139375655E-01
86  8.5000000000000E-01  7.3188610819815E-01  7.0566666187755E-01
87  8.6000000000000E-01  7.0259808337380E-01  7.2193426716350E-01
88  8.7000000000000E-01  6.7324067853601E-01  7.3789587564997E-01
89  8.8000000000000E-01  6.4384626603928E-01  7.5362756749752E-01
90  8.9000000000000E-01  6.1444575635078E-01  7.6920882404115E-01
91  9.0000000000000E-01  5.8506865905332E-01  7.8472145761978E-01
92  9.1000000000000E-01  5.5574315686206E-01  8.0024849388532E-01
93  9.2000000000000E-01  5.2649619139874E-01  8.1587301681008E-01
94  9.3000000000000E-01  4.9735355937876E-01  8.3167698703358E-01
95  9.4000000000000E-01  4.6834001779356E-01  8.4774004451471E-01
96  9.5000000000000E-01  4.3947939661345E-01  8.6413830667905E-01
97  9.6000000000000E-01  4.1079471749501E-01  8.8094317337535E-01
98  9.7000000000000E-01  3.8230831695129E-01  8.9822014997908E-01
99  9.8000000000000E-01  3.5404197243298E-01  9.1602769990678E-01
100  9.9000000000000E-01  3.2601702977226E-01  9.3441613763756E-01
101  1.0000000000000E+00  2.9825453045905E-01  9.5342657307838E-01
102  1.0100000000000E+00  2.7077533724958E-01  9.7308991776661E-01
103  1.0200000000000E+00  2.4360025664849E-01  9.9342596298068E-01
104  1.0300000000000E+00  2.1675015685760E-01  1.0144425393343E+00
105  1.0400000000000E+00  1.9024607984408E-01  1.0361347668722E+00
106  1.0500000000000E+00  1.6410934624802E-01  1.0584844040687E+00
107  1.0600000000000E+00  1.3836165192148E-01  1.0814593034697E+00
108  1.0700000000000E+00  1.1302515496692E-01  1.1050129810154E+00
109  1.0800000000000E+00  8.8122552221023E-02  1.1290843053515E+00
110  1.0900000000000E+00  6.3677144208261E-02  1.1535973126815E+00
111  1.1000000000000E+00  3.9712887666001E-02  1.1784611519487E+00
112  1.1100000000000E+00  1.6254434818174E-02  1.2035701643623E+00
113  1.1200000000000E+00 -6.6728413539845E-03  1.2288041005123E+00
114  1.1300000000000E+00 -2.9042836528039E-02  1.2540284775542E+00
115  1.1400000000000E+00 -5.0828719765478E-02  1.2790950781929E+00
116  1.1500000000000E+00 -7.2002954111197E-02  1.3038425924577E+00
117  1.1600000000000E+00 -9.2537333581986E-02  1.3280974025457E+00
118  1.1700000000000E+00 -1.1240303701322E-01  1.3516745103082E+00
119  1.1800000000000E+00 -1.3157069919256E-01  1.3743786062725E+00
120  1.1900000000000E+00 -1.5001049967282E-01  1.3960052784264E+00
121  1.2000000000000E+00 -1.6769226962239E-01  1.4163423583302E+00
122  1.2100000000000E+00 -1.8458561703846E-01  1.4351714014702E+00
123  1.2200000000000E+00 -2.0066007061365E-01  1.4522692980993E+00
124  1.2300000000000E+00 -2.1588524250846E-01  1.4674100101397E+00
125  1.2400000000000E+00 -2.3023101023634E-01  1.4803664290058E+00
126  1.2500000000000E+00 -2.4366771781188E-01  1.4909123484557E+00
127  1.2600000000000E+00 -2.5616639624289E-01  1.4988245457642E+00
128  1.2700000000000E+00 -2.6769900335727E-01  1.5038849636070E+00
129  1.2800000000000E+00 -2.7823868284375E-01  1.5058829840534E+00
130  1.2900000000000E+00 -2.8776004224463E-01  1.5046177849328E+00
131  1.3000000000000E+00 -2.9623944946375E-01  1.4999007675703E+00
132  1.3100000000000E+00 -3.0365534713933E-01  1.4915580434299E+00
133  1.3200000000000E+00 -3.0998858397186E-01  1.4794329655592E+00
134  1.3300000000000E+00 -3.1522276178550E-01  1.4633886888294E+00
135  1.3400000000000E+00 -3.1934459673166E-01  1.4433107408179E+00
136  1.3500000000000E+00 -3.2234429261052E-01  1.4191095827415E+00
137  1.3600000000000E+00 -3.2421592377755E-01  1.3907231370583E+00
138  1.3700000000000E+00 -3.2495782451778E-01  1.3581192552310E+00
139  1.3800000000000E+00 -3.2457298109678E-01  1.3212980955962E+00
140  1.3900000000000E+00 -3.2306942193415E-01  1.2802943773314E+00
141  1.4000000000000E+00 -3.2046060047455E-01  1.2351794720572E+00
142  1.4100000000000E+00 -3.1676576435556E-01  1.1860632896688E+00
143  1.4200000000000E+00 -3.1201030337801E-01  1.1330959094975E+00
144  1.4300000000000E+00 -3.0622606756180E-01  1.0764689018050E+00
145  1.4400000000000E+00 -2.9945164522337E-01  1.0164162779336E+00
146  1.4500000000000E+00 -2.9173258950840E-01  9.5321500001349E-01
147  1.4600000000000E+00 -2.8312158017174E-01  8.8718497305317E-01
148  1.4700000000000E+00 -2.7367850559014E-01  8.1868843337687E-01
149  1.4800000000000E+00 -2.6347044801954E-01  7.4812863771022E-01
150  1.4900000000000E+00 -2.5257155295366E-01  6.7594774668425E-01
151  1.5000000000000E+00 -2.4106276110467E-01  6.0262378512316E-01
152  1.5100000000000E+00 -2.2903137898570E-01  5.2866654908818E-01
153  1.5200000000000E+00 -2.1657046132457E-01  4.5461231623673E-01
154  1.5300000000000E+00 -2.0377797557478E-01  3.8101720160774E-01
155  1.5400000000000E+00 -1.9075571558801E-01  3.0844898532915E-01
156  1.5500000000000E+00 -1.7760792806967E-01  2.3747722194625E-01
157  1.5600000000000E+00 -1.6443961173936E-01  1.6866142300566E-01
158  1.5700000000000E+00 -1.5135444514779E-01  1.0253708513398E-01
159  1.5800000000000E+00 -1.3845229484882E-01  3.9599315047407E-02
160  1.5900000000000E+00 -1.2582624922740E-01 -1.9716232688021E-02
161  1.6000000000000E+00 -1.1355914574566E-01 -7.5055212912169E-02
162  1.6100000000000E+00 -1.0171938265450E-01 -1.2617064415454E-01
163  1.6200000000000E+00 -9.0357814346912E-02 -1.7293967919529E-01
164  1.6300000000000E+00 -7.9513457791771E-02 -2.1531542811868E-01
165  1.6400000000000E+00 -6.9220047114811E-02 -2.5327609821510E-01
166  1.6500000000000E+00 -5.9506180214494E-02 -2.8682343026158E-01
167  1.6600000000000E+00 -5.0395267774970E-02 -3.1598271135945E-01
168  1.6700000000000E+00 -4.1905489673606E-02 -3.4080284848648E-01
169  1.6800000000000E+00 -3.4049789597963E-02 -3.6135626225939E-01
170  1.6900000000000E+00 -2.6835911118148E-02 -3.7773857846997E-01
171  1.7000000000000E+00 -2.0266474060826E-02 -3.9006812600174E-01
172  1.7100000000000E+00 -1.4339090825447E-02 -3.9848524280245E-01
173  1.7200000000000E+00 -9.0465218871302E-03 -4.0315139362046E-01
174  1.7300000000000E+00 -4.3768693012653E-03 -4.0424810544060E-01
175  1.7400000000000E+00 -3.1380693205429E-04 -4.0197572657611E-01
176  1.7500000000000E+00  3.1631543101532E-03 -3.9655201770336E-01
177  1.7600000000000E+00  6.0783694123069E-03 -3.8821059235422E-01
178  1.7700000000000E+00  8.4597304920829E-03 -3.7719920342401E-01
179  1.7800000000000E+00  1.0338311631169E-02 -3.6377790626438E-01
180  1.7900000000000E+00  1.1747988579483E-02 -3.4821710169820E-01
181  1.8000000000000E+00  1.2725037166059E-02 -3.3079547889915E-01
182  1.8100000000000E+00  1.3307713728930E-02 -3.1179787425341E-01
183  1.8200000000000E+00  1.3535821153196E-02 -2.9151306385946E-01
184  1.8300000000000E+00  1.3450264284337E-02 -2.7023150824401E-01
185  1.8400000000000E+00  1.3092598548899E-02 -2.4824306812810E-01
186  1.8500000000000E+00  1.2504575732165E-02 -2.2583471071290E-01
187  1.8600000000000E+00  1.1727690884783E-02 -2.0328822604117E-01
188  1.8700000000000E+00  1.0802735417147E-02 -1.8087797718707E-01
189  1.8800000000000E+00  9.7693516611306E-03 -1.5886867049854E-01
190  1.8900000000000E+00  8.6656214663295E-03 -1.3751327477479E-01
191  1.9000000000000E+00  7.5276519104656E-03 -1.1705095072328E-01
192  1.9100000000000E+00  6.3887880963999E-03 -9.7703593224423E-02
193  1.9200000000000E+00  5.2773642666896E-03 -7.9666610516539E-02
194  1.9300000000000E+00  4.2210211259586E-03 -6.3125133421286E-02
195  1.9400000000000E+00  3.2458768338740E-03 -4.8250694439347E-02
196  1.9500000000000E+00  2.3738739486278E-03 -3.5190820330649E-02
197  1.9600000000000E+00  1.6229454859961E-03 -2.4069335743551E-02
198  1.9700000000000E+00  1.0067554035343E-03 -1.4985122117374E-02
199  1.9800000000000E+00  5.3472146706880E-04 -8.0142194968135E-03
200  1.9900000000000E+00  2.0961161720736E-04 -3.1731950600714E-03
201  2.0000000000000E+00  4.0130599129574E-05 -6.1629074663691E-04
202  2.0100000000000E+00 -4.2826114298559E-06  6.6412401169223E-05
203  2.0200000000000E+00  3.9435695356179E-07 -6.0697954335107E-06
204  2.03  0. -0.
205  2.04 -0.  0.
206  2.05 -0. -0.
207  2.06  0.  0.
208  2.07  0.  0.
209  2.08  0.  0.
210  2.09  0.  0.
211  2.10  0.  0.
212  2.11  0.  0.
213  2.12  0.  0.
214  2.13  0.  0.
215  2.14  0.  0.
216  2.15  0.  0.
217  2.16  0.  0.
218  2.17  0.  0.
219  2.18  0.  0.
220  2.19  0.  0.
221  2.20  0.  0.
222  2.21  0.  0.
223  2.22  0.  0.
224  2.23  0.  0.
225  2.24  0.  0.
226  2.25  0.  0.
227  2.26  0.  0.
228  2.27  0.  0.
229  2.28  0.  0.
230  2.29  0.  0.
231  2.30  0.  0.
232  2.31  0.  0.
233  2.32  0.  0.
234  2.33  0.  0.
235  2.34  0.  0.
236  2.35  0.  0.
237  2.36  0.  0.
238  2.37  0.  0.
239  2.38  0.  0.
240  2.39  0.  0.
241  2.40  0.  0.
242  2.41  0.  0.
243  2.42  0.  0.
244  2.43  0.  0.
245  2.44  0.  0.
246  2.45  0.  0.
247  2.46  0.  0.
248  2.47  0.  0.
249  2.48  0.  0.
250  2.49  0.  0.
251  2.50  0.  0.
252  2.51  0.  0.
253  2.52  0.  0.
254  2.53  0.  0.
255  2.54  0.  0.
256  2.55  0.  0.
257  2.56  0.  0.
258  2.57  0.  0.
259  2.58  0.  0.
260  2.59  0.  0.
261  2.60  0.  0.
262  2.61  0.  0.
263  2.62  0.  0.
264  2.63  0.  0.
265  2.64  0.  0.
266  2.65  0.  0.
267  2.66  0.  0.
268  2.67  0.  0.
269  2.68  0.  0.
270  2.69  0.  0.
271  2.70  0.  0.
272  2.71  0.  0.
273  2.72  0.  0.
274  2.73  0.  0.
275  2.74  0.  0.
276  2.75  0.  0.
277  2.76  0.  0.
278  2.77  0.  0.
279  2.78  0.  0.
280  2.79  0.  0.
281  2.80  0.  0.
282  2.81  0.  0.
283  2.82  0.  0.
284  2.83  0.  0.
285  2.84  0.  0.
286  2.85  0.  0.
287  2.86  0.  0.
288  2.87  0.  0.
289  2.88  0.  0.
290  2.89  0.  0.
291  2.90  0.  0.
292  2.91  0.  0.
293  2.92  0.  0.
294  2.93  0.  0.
295  2.94  0.  0.
296  2.95  0.  0.
297  2.96  0.  0.
298  2.97  0.  0.
299  2.98  0.  0.
300  2.99  0.  0.
301  3.00  0.  0.
302  3.01  0.  0.
303  3.02  0.  0.
304  3.03  0.  0.
305  3.04  0.  0.
306  3.05  0.  0.
307  3.06  0.  0.
308  3.07  0.  0.
309  3.08  0.  0.
310  3.09  0.  0.
311  3.10  0.  0.
312  3.11  0.  0.
313  3.12  0.  0.
314  3.13  0.  0.
315  3.14  0.  0.
316  3.15  0.  0.
317  3.16  0.  0.
318  3.17  0.  0.
319  3.18  0.  0.
320  3.19  0.  0.
321  3.20  0.  0.
322  3.21  0.  0.
323  3.22  0.  0.
324  3.23  0.  0.
325  3.24  0.  0.
326  3.25  0.  0.
327  3.26  0.  0.
328  3.27  0.  0.
329  3.28  0.  0.
330  3.29  0.  0.
331  3.30  0.  0.
332  3.31  0.  0.
333  3.32  0.  0.
334  3.33  0.  0.
335  3.34  0.  0.
336  3.35  0.  0.
337  3.36  0.  0.
338  3.37  0.  0.
339  3.38  0.  0.
340  3.39  0.  0.
341  3.40  0.  0.
342  3.41  0.  0.
343  3.42  0.  0.
344  3.43  0.  0.
345  3.44  0.  0.
346  3.45  0.  0.
347  3.46  0.  0.
348  3.47  0.  0.
349  3.48  0.  0.
350  3.49  0.  0.
351  3.50  0.  0.
352  3.51  0.  0.
353  3.52  0.  0.
354  3.53  0.  0.
355  3.54  0.  0.
356  3.55  0.  0.
357  3.56  0.  0.
358  3.57  0.  0.
359  3.58  0.  0.
360  3.59  0.  0.
361  3.60  0.  0.
362  3.61  0.  0.
363  3.62  0.  0.
364  3.63  0.  0.
365  3.64  0.  0.
366  3.65  0.  0.
367  3.66  0.  0.
368  3.67  0.  0.
369  3.68  0.  0.
370  3.69  0.  0.
371  3.70  0.  0.
372  3.71  0.  0.
373  3.72  0.  0.
374  3.73  0.  0.
375  3.74  0.  0.
376  3.75  0.  0.
377  3.76  0.  0.
378  3.77  0.  0.
379  3.78  0.  0.
380  3.79  0.  0.
381  3.80  0.  0.
382  3.81  0.  0.
383  3.82  0.  0.
384  3.83  0.  0.
385  3.84  0.  0.
386  3.85  0.  0.
387  3.86  0.  0.
388  3.87  0.  0.
389  3.88  0.  0.
390  3.89  0.  0.
391  3.90  0.  0.
392  3.91  0.  0.
393  3.92  0.  0.
394  3.93  0.  0.
395  3.94  0.  0.
396  3.95  0.  0.
397  3.96  0.  0.
398  3.97  0.  0.
399  3.98  0.  0.
400  3.99  0.  0.
401  4.00  0.  0.
402  4.01  0.  0.
403  4.02  0.  0.
404  4.03  0.  0.
405  4.04  0.  0.
406  4.05  0.  0.
407  4.06  0.  0.
408  4.07  0.  0.
409  4.08  0.  0.
410  4.09  0.  0.
411  4.10  0.  0.
412  4.11  0.  0.
413  4.12  0.  0.
414  4.13  0.  0.
415  4.14  0.  0.
416  4.15  0.  0.
417  4.16  0.  0.
418  4.17  0.  0.
419  4.18  0.  0.
420  4.19  0.  0.
421  4.20  0.  0.
422  4.21  0.  0.
423  4.22  0.  0.
424  4.23  0.  0.
425  4.24  0.  0.
426  4.25  0.  0.
427  4.26  0.  0.
428  4.27  0.  0.
429  4.28  0.  0.
430  4.29  0.  0.
431  4.30  0.  0.
432  4.31  0.  0.
433  4.32  0.  0.
434  4.33  0.  0.
435  4.34  0.  0.
436  4.35  0.  0.
437  4.36  0.  0.
438  4.37  0.  0.
439  4.38  0.  0.
440  4.39  0.  0.
441  4.40  0.  0.
442  4.41  0.  0.
443  4.42  0.  0.
444  4.43  0.  0.
445  4.44  0.  0.
446  4.45  0.  0.
447  4.46  0.  0.
448  4.47  0.  0.
449  4.48  0.  0.
450  4.49  0.  0.
451  4.50  0.  0.
452  4.51  0.  0.
453  4.52  0.  0.
454  4.53  0.  0.
455  4.54  0.  0.
456  4.55  0.  0.
457  4.56  0.  0.
458  4.57  0.  0.
459  4.58  0.  0.
460  4.59  0.  0.
461  4.60  0.  0.
462  4.61  0.  0.
463  4.62  0.  0.
464  4.63  0.  0.
465  4.64  0.  0.
466  4.65  0.  0.
467  4.66  0.  0.
468  4.67  0.  0.
469  4.68  0.  0.
470  4.69  0.  0.
471  4.70  0.  0.
472  4.71  0.  0.
473  4.72  0.  0.
474  4.73  0.  0.
475  4.74  0.  0.
476  4.75  0.  0.
477  4.76  0.  0.
478  4.77  0.  0.
479  4.78  0.  0.
480  4.79  0.  0.
481  4.80  0.  0.
482  4.81  0.  0.
483  4.82  0.  0.
484  4.83  0.  0.
485  4.84  0.  0.
486  4.85  0.  0.
487  4.86  0.  0.
488  4.87  0.  0.
489  4.88  0.  0.
490  4.89  0.  0.
491  4.90  0.  0.
492  4.91  0.  0.
493  4.92  0.  0.
494  4.93  0.  0.
495  4.94  0.  0.
496  4.95  0.  0.
497  4.96  0.  0.
498  4.97  0.  0.
499  4.98  0.  0.
500  4.99  0.  0.
501  5.00  0.  0.
502  5.01  0.  0.
503  5.02  0.  0.
504  5.03  0.  0.
505  5.04  0.  0.
506  5.05  0.  0.
507  5.06  0.  0.
508  5.07  0.  0.
509  5.08  0.  0.
510  5.09  0.  0.
511  5.10  0.  0.
512  5.11  0.  0.
513  5.12  0.  0.
514  5.13  0.  0.
515  5.14  0.  0.
516  5.15  0.  0.
517  5.16  0.  0.
518  5.17  0.  0.
519  5.18  0.  0.
520  5.19  0.  0.
521  5.20  0.  0.
522  5.21  0.  0.
523  5.22  0.  0.
524  5.23  0.  0.
525  5.24  0.  0.
526  5.25  0.  0.
527  5.26  0.  0.
528  5.27  0.  0.
529  5.28  0.  0.
530  5.29  0.  0.
531  5.30  0.  0.
532  5.31  0.  0.
533  5.32  0.  0.
534  5.33  0.  0.
535  5.34  0.  0.
536  5.35  0.  0.
537  5.36  0.  0.
538  5.37  0.  0.
539  5.38  0.  0.
540  5.39  0.  0.
541  5.40  0.  0.
542  5.41  0.  0.
543  5.42  0.  0.
544  5.43  0.  0.
545  5.44  0.  0.
546  5.45  0.  0.
547  5.46  0.  0.
548  5.47  0.  0.
549  5.48  0.  0.
550  5.49  0.  0.
551  5.50  0.  0.
552  5.51  0.  0.
553  5.52  0.  0.
554  5.53  0.  0.
555  5.54  0.  0.
556  5.55  0.  0.
557  5.56  0.  0.
558  5.57  0.  0.
559  5.58  0.  0.
560  5.59  0.  0.
561  5.60  0.  0.
562  5.61  0.  0.
563  5.62  0.  0.
564  5.63  0.  0.
565  5.64  0.  0.
566  5.65  0.  0.
567  5.66  0.  0.
568  5.67  0.  0.
569  5.68  0.  0.
570  5.69  0.  0.
571  5.70  0.  0.
572  5.71  0.  0.
573  5.72  0.  0.
574  5.73  0.  0.
575  5.74  0.  0.
576  5.75  0.  0.
577  5.76  0.  0.
578  5.77  0.  0.
579  5.78  0.  0.
580  5.79  0.  0.
581  5.80  0.  0.
582  5.81  0.  0.
583  5.82  0.  0.
584  5.83  0.  0.
585  5.84  0.  0.
586  5.85  0.  0.
587  5.86  0.  0.
588  5.87  0.  0.
589  5.88  0.  0.
590  5.89  0.  0.
591  5.90  0.  0.
592  5.91  0.  0.
593  5.92  0.  0.
594  5.93  0.  0.
595  5.94  0.  0.
596  5.95  0.  0.
597  5.96  0.  0.
598  5.97  0.  0.
599  5.98  0.  0.
600  5.99  0.  0.
1                         4.9430405643225E+00  3.4386501384223E-01
1  0.0000000000000E+00  8.1092996762067E-09 -6.5830243284326E-08
2  1.0000000000000E-02  1.3624687441005E-03 -4.2658208153402E-03
3  2.0000000000000E-02  5.4360658400650E-03 -1.6963769849055E-02
4  3.0000000000000E-02  1.2179610544324E-02 -3.7797308659936E-02
5  4.0000000000000E-02  2.1525285735548E-02 -6.6278840550544E-02
6  5.0000000000000E-02  3.3379847498538E-02 -1.0173952720141E-01
7  6.0000000000000E-02  4.7626285682107E-02 -1.4334276572561E-01
8  7.0000000000000E-02  6.4125903326883E-02 -1.9010106595586E-01
9  8.0000000000000E-02  8.2720774749728E-02 -2.4089600194597E-01
10  9.0000000000000E-02  1.0323653473214E-01 -2.9450085200293E-01
11  1.0000000000000E-01  1.2548544483165E-01 -3.4960548919508E-01
12  1.1000000000000E-01  1.4926967744189E-01 -4.0484304020313E-01
13  1.2000000000000E-01  1.7438475397262E-01 -4.5881779543538E-01
14  1.3000000000000E-01  2.0062307048949E-01 -5.1013382818695E-01
15  1.4000000000000E-01  2.2777744240347E-01 -5.5742376577515E-01
16  1.5000000000000E-01  2.5564459936794E-01 -5.9937715132337E-01
17  1.6000000000000E-01  2.8402856243835E-01 -6.3476784129336E-01
18  1.7000000000000E-01  3.1274383775996E-01 -6.6247990087834E-01
19  1.8000000000000E-01  3.4161836453492E-01 -6.8153148666546E-01
20  1.9000000000000E-01  3.7049615971614E-01 -6.9109624306212E-01
21  2.0000000000000E-01  3.9923960769656E-01 -6.9052178517907E-01
22  2.1000000000000E-01  4.2773135009863E-01 -6.7934489532047E-01
23  2.2000000000000E-01  4.5587573849382E-01 -6.5730312194335E-01
24  2.3000000000000E-01  4.8359982134895E-01 -6.2434253776638E-01
25  2.4000000000000E-01  5.1085384554704E-01 -5.8062148637078E-01
26  2.5000000000000E-01  5.3761126229270E-01 -5.2651022278387E-01
27  2.6000000000000E-01  5.6386823690676E-01 -4.6258643174483E-01
28  2.7000000000000E-01  5.8964267175766E-01 -3.8962668615015E-01
29  2.8000000000000E-01  6.1497276118032E-01 -3.0859398608137E-01
30  2.9000000000000E-01  6.3991510651464E-01 -2.2062159435485E-01
31  3.0000000000000E-01  6.6454242817453E-01 -1.2699345627134E-01
32  3.1000000000000E-01  6.8894091976522E-01 -2.9121557814165E-02
33  3.2000000000000E-01  7.1320729654369E-01  7.1479363324599E-02
34  3.3000000000000E-01  7.3744559682041E-01  1.7321928697981E-01
35  3.4000000000000E-01  7.6176380010571E-01  2.7446204918786E-01
36  3.5000000000000E-01  7.8627032980549E-01  3.7355560504736E-01
37  3.6000000000000E-01  8.1107051098597E-01  4.6886284625143E-01
38  3.7000000000000E-01  8.3626305509746E-01  5.5879239018483E-01
39  3.8000000000000E-01  8.6193664353821E-01  6.4182875485887E-01
40  3.9000000000000E-01  8.8816668054438E-01  7.1656134240422E-01
41  4.0000000000000E-01  9.1501228312987E-01  7.8171167324855E-01
42  4.1000000000000E-01  9.4251357171346E-01  8.3615834315661E-01
43  4.2000000000000E-01  9.7068931973228E-01  8.7895921548634E-01
44  4.3000000000000E-01  9.9953501404233E-01  9.0937041061003E-01
45  4.4000000000000E-01  1.0290213703663E+00  9.2686171257297E-01
46  4.5000000000000E-01  1.0590933396030E+00  9.3112807866223E-01
47  4.6000000000000E-01  1.0896696316150E+00  9.2209700943591E-01
48  4.7000000000000E-01  1.1206427733359E+00  8.9993161359833E-01
49  4.8000000000000E-01  1.1518797078606E+00  8.6502928247496E-01
50  4.9000000000000E-01  1.1832229307996E+00  8.1801597125250E-01
51  5.0000000000000E-01  1.2144921497849E+00  7.5973616705862E-01
52  5.1000000000000E-01  1.2454864428032E+00  6.9123870580987E-01
53  5.2000000000000E-01  1.2759868812066E+00  6.1375867900546E-01
54  5.3000000000000E-01  1.3057595739927E+00  5.2869574678702E-01
55  5.4000000000000E-01  1.3345590814357E+00  4.3758924318217E-01
56  5.5000000000000E-01  1.3621321385648E+00  3.4209052216392E-01
57  5.6000000000000E-01  1.3882216224560E+00  2.4393304777382E-01
58  5.7000000000000E-01  1.4125706919842E+00  1.4490077699778E-01
59  5.8000000000000E-01  1.4349270246627E+00  4.6795419449707E-02
60  5.9000000000000E-01  1.4550470725771E+00 -4.8596817514357E-02
61  6.0000000000000E-01  1.4727002582497E+00 -1.3953837638138E-01
62  6.1000000000000E-01  1.4876730315934E+00 -2.2437276627934E-01
63  6.2000000000000E-01  1.4997727109184E+00 -3.0155563561164E-01
64  6.3000000000000E-01  1.5088310342399E+00 -3.6968390886473E-01
65  6.4000000000000E-01  1.5147073518273E+00 -4.2752242889499E-01
66  6.5000000000000E-01  1.5172913969723E+00 -4.7402758967213E-01
67  6.6000000000000E-01  1.5165055792250E+00 -5.0836749806582E-01
68  6.7000000000000E-01  1.5123067527235E+00 -5.2993826585569E-01
69  6.8000000000000E-01  1.5046874215776E+00 -5.3837610359899E-01
70  6.9000000000000E-01  1.4936763543908E+00 -5.3356496501414E-01
71  7.0000000000000E-01  1.4793385907287E+00 -5.1563957273353E-01
72  7.1000000000000E-01  1.4617748334736E+00 -4.8498374210701E-01
73  7.2000000000000E-01  1.4411202323308E+00 -4.4222400762779E-01
74  7.3000000000000E-01  1.4175425750706E+00 -3.8821864483523E-01
75  7.4000000000000E-01  1.3912399141701E+00 -3.2404226758989E-01
76  7.5000000000000E-01  1.3624376671760E+00 -2.5096626475220E-01
77  7.6000000000000E-01  1.3313852391085E+00 -1.7043541993464E-01
78  7.7000000000000E-01  1.2983522244088E+00 -8.4041131616815E-02
79  7.8000000000000E-01  1.2636242540868E+00  6.5082829078472E-03
80  7.9000000000000E-01  1.2274985607198E+00  9.9419658831953E-02
81  8.0000000000000E-01  1.1902793396265E+00  1.9284884185352E-01
82  8.1000000000000E-01  1.1522729887922E+00  2.8493570758674E-01
83  8.2000000000000E-01  1.1137833128551E+00  3.7383969177474E-01
84  8.3000000000000E-01  1.0751067776199E+00  4.5777516754215E-01
85  8.4000000000000E-01  1.0365279011143E+00  5.3504600513581E-01
86  8.5000000000000E-01  9.9831486514206E-01  6.0407866128020E-01
87  8.6000000000000E-01  9.6071542764800E-01  6.6345316925721E-01
88  8.7000000000000E-01  9.2395321104558E-01  7.1193143671581E-01
89  8.8000000000000E-01  8.8822443506660E-01  7.4848230540488E-01
90  8.9000000000000E-01  8.5369515478133E-01  7.7230288466873E-01
91  9.0000000000000E-01  8.2049905535429E-01  7.8283573760805E-01
92  9.1000000000000E-01  7.8873584500667E-01  7.7978157407463E-01
93  9.2000000000000E-01  7.5847027673887E-01  7.6310718674646E-01
94  9.3000000000000E-01  7.2973181782447E-01  7.3304845391832E-01
95  9.4000000000000E-01  7.0251497413598E-01  6.9010832371074E-01
96  9.5000000000000E-01  6.7678026422543E-01  6.3504978745412E-01
97  9.6000000000000E-01  6.5245582598626E-01  5.6888394330398E-01
98  9.7000000000000E-01  6.2943962689523E-01  4.9285334294247E-01
99  9.8000000000000E-01  6.0760223749968E-01  4.0841090276426E-01
100  9.9000000000000E-01  5.8679011718540E-01  3.1719474462315E-01
101  1.0000000000000E+00  5.6682935154479E-01  2.2099940836507E-01
102  1.0100000000000E+00  5.4752977204551E-01  1.2174394757555E-01
103  1.0200000000000E+00  5.2868938134042E-01  2.1437479909103E-02
104  1.0300000000000E+00  5.1009900160695E-01 -7.7857187115782E-02
105  1.0400000000000E+00  4.9154705887531E-01 -1.7406119585444E-01
106  1.0500000000000E+00  4.7282441348210E-01 -2.6511785876260E-01
107  1.0600000000000E+00  4.5372914563464E-01 -3.4903076067688E-01
108  1.0700000000000E+00  4.3407120561061E-01 -4.2390104419965E-01
109  1.0800000000000E+00  4.1367684034871E-01 -4.8796319166152E-01
110  1.0900000000000E+00  3.9239271206700E-01 -5.3961864227355E-01
111  1.1000000000000E+00  3.7008963000153E-01 -5.7746662041903E-01
112  1.1100000000000E+00  3.4666582331687E-01 -6.0033160008777E-01
113  1.1200000000000E+00  3.2204969151680E-01 -6.0728688990413E-01
114  1.1300000000000E+00  2.9620197822027E-01 -5.9767389262013E-01
115  1.1400000000000E+00  2.6911732465399E-01 -5.7111667007662E-01
116  1.1500000000000E+00  2.4082517062583E-01 -5.2753152930242E-01
117  1.1600000000000E+00  2.1138998266685E-01 -4.6713143454326E-01
118  1.1700000000000E+00  1.8091080146717E-01 -3.9042514360957E-01
119  1.1800000000000E+00  1.4952011322097E-01 -2.9821106154198E-01
120  1.1900000000000E+00  1.1738206201866E-01 -1.9156590007775E-01
121  1.2000000000000E+00  8.4690032575938E-02 -7.1828324684565E-02
122  1.2100000000000E+00  5.1663644247980E-02  5.9422138904191E-02
123  1.2200000000000E+00  1.8545208210852E-02  2.0039058143547E-01
124  1.2300000000000E+00 -1.4404290382973E-02  3.4909613475355E-01
125  1.2400000000000E+00 -4.6909614576906E-02  5.0340483793201E-01
126  1.2500000000000E+00 -7.8686023898883E-02  6.6106537757585E-01
127  1.2600000000000E+00 -1.0944426441969E-01  8.1974708391672E-01
128  1.2700000000000E+00 -1.3889571164577E-01  9.7707952456581E-01
129  1.2800000000000E+00 -1.6675757436113E-01  1.1306930100981E+00
130  1.2900000000000E+00 -1.9275806623295E-01  1.2782593101021E+00
131  1.3000000000000E+00 -2.1664145240372E-01  1.4175318754572E+00
132  1.3100000000000E+00 -2.3817288037219E-01  1.5463848722022E+00
133  1.3200000000000E+00 -2.5714290817131E-01  1.6628503541050E+00
134  1.3300000000000E+00 -2.7337164814058E-01  1.7651529346786E+00