
.Version 9.10.1 of ABINIT 
.(MPI version, prepared for a x86_64_linux_gnu11.4 computer) 

.Copyright (C) 1998-2022 ABINIT group . 
 ABINIT comes with ABSOLUTELY NO WARRANTY.
 It is free software, and you are welcome to redistribute it
 under certain conditions (GNU General Public License,
 see ~abinit/COPYING or http://www.gnu.org/copyleft/gpl.txt).

 ABINIT is a project of the Universite Catholique de Louvain,
 Corning Inc. and other collaborators, see ~abinit/doc/developers/contributors.txt .
 Please read https://docs.abinit.org/theory/acknowledgments for suggested
 acknowledgments of the ABINIT effort.
 For more information, see https://www.abinit.org .

.Starting date : Wed 18 Sep 2024.
- ( at 17h42 )
  
- input  file    -> run.abi
- output file    -> run.abo
- root for input  files -> indata/in
- root for output files -> outdata/out


 Symmetries : space group Im -3 m (#229); Bravais cI (body-center cubic)
================================================================================
 Values of the parameters that define the memory need of the present run
     intxc =       0    ionmov =       0      iscf =       7    lmnmax =       5
     lnmax =       5     mgfft =      24  mpssoang =       3    mqgrid =    3001
     natom =       1  nloc_mem =       1    nspden =       2   nspinor =       1
    nsppol =       2      nsym =      48    n1xccc =    2501    ntypat =       1
    occopt =       3   xclevel =       2
-    mband =           7        mffmem =           1         mkmem =           6
       mpw =         638          nfft =       13824          nkpt =          29
================================================================================
P This job should need less than                       9.678 Mbytes of memory.
  Rough estimation (10% accuracy) of disk space for files :
_ WF disk file :      3.954 Mbytes ; DEN or POT disk file :      0.213 Mbytes.
================================================================================

--------------------------------------------------------------------------------
------------- Echo of variables that govern the present computation ------------
--------------------------------------------------------------------------------
-
- outvars: echo of selected default values                                      
-   iomode0 =  0 , fftalg0 =312 , wfoptalg0 =  0
-
- outvars: echo of global parameters not present in the input file              
-  max_nthreads =    0
-
 -outvars: echo values of preprocessed input variables --------
            acell      1.0000000000E+00  1.0000000000E+00  1.0000000000E+00 Bohr
              amu      1.59994000E+01
             ecut      3.80000000E+01 Hartree
-          fftalg         312
           istwfk        2    0    0    0    3    0    0    0    0    0
                         0    0    0    0    0    0    0    0    0    0
                         0    0    0    0    0    0    0    0    9
              ixc          11
              kpt      0.00000000E+00  0.00000000E+00  0.00000000E+00
                       1.25000000E-01  0.00000000E+00  0.00000000E+00
                       2.50000000E-01  0.00000000E+00  0.00000000E+00
                       3.75000000E-01  0.00000000E+00  0.00000000E+00
                       5.00000000E-01  0.00000000E+00  0.00000000E+00
                       1.25000000E-01  1.25000000E-01  0.00000000E+00
                       2.50000000E-01  1.25000000E-01  0.00000000E+00
                       3.75000000E-01  1.25000000E-01  0.00000000E+00
                       2.50000000E-01  2.50000000E-01  0.00000000E+00
                       3.75000000E-01  2.50000000E-01  0.00000000E+00
                       1.25000000E-01  1.25000000E-01  1.25000000E-01
                       2.50000000E-01  1.25000000E-01  1.25000000E-01
                       3.75000000E-01  1.25000000E-01  1.25000000E-01
                      -1.25000000E-01  1.25000000E-01  1.25000000E-01
                       2.50000000E-01  2.50000000E-01  1.25000000E-01
                      -2.50000000E-01  2.50000000E-01  1.25000000E-01
                      -3.75000000E-01  3.75000000E-01  1.25000000E-01
                      -2.50000000E-01  3.75000000E-01  1.25000000E-01
                       5.00000000E-01  5.00000000E-01  1.25000000E-01
                      -3.75000000E-01  5.00000000E-01  1.25000000E-01
                      -3.75000000E-01 -3.75000000E-01  1.25000000E-01
                       2.50000000E-01  2.50000000E-01  2.50000000E-01
                      -2.50000000E-01  2.50000000E-01  2.50000000E-01
                      -3.75000000E-01  3.75000000E-01  2.50000000E-01
                       5.00000000E-01  5.00000000E-01  2.50000000E-01
                      -3.75000000E-01  5.00000000E-01  2.50000000E-01
                      -3.75000000E-01  3.75000000E-01  3.75000000E-01
                       5.00000000E-01  5.00000000E-01  3.75000000E-01
                       5.00000000E-01  5.00000000E-01  5.00000000E-01
         kptrlatt        8    0    0      0    8    0      0    0    8
          kptrlen      3.33511703E+01
P           mkmem           6
            natom           1
            nband           7
            ngfft          24      24      24
             nkpt          29
           nspden           2
           nsppol           2
             nsym          48
           ntypat           1
              occ      1.000000  1.000000  1.000000  0.000000  0.000000  0.000000
                       0.000000
                       1.000000  1.000000  1.000000  0.000000  0.000000  0.000000
                       0.000000
                       1.000000  1.000000  1.000000  0.000000  0.000000  0.000000
                       0.000000
                       1.000000  1.000000  1.000000  0.000000  0.000000  0.000000
                       0.000000
                       1.000000  1.000000  1.000000  0.000000  0.000000  0.000000
                       0.000000
                       1.000000  1.000000  1.000000  0.000000  0.000000  0.000000
                       0.000000
                       1.000000  1.000000  1.000000  0.000000  0.000000  0.000000
                       0.000000
                       1.000000  1.000000  1.000000  0.000000  0.000000  0.000000
                       0.000000
                       1.000000  1.000000  1.000000  0.000000  0.000000  0.000000
                       0.000000
                       1.000000  1.000000  1.000000  0.000000  0.000000  0.000000
                       0.000000
                       1.000000  1.000000  1.000000  0.000000  0.000000  0.000000
                       0.000000
                       1.000000  1.000000  1.000000  0.000000  0.000000  0.000000
                       0.000000
                       1.000000  1.000000  1.000000  0.000000  0.000000  0.000000
                       0.000000
                       1.000000  1.000000  1.000000  0.000000  0.000000  0.000000
                       0.000000
                       1.000000  1.000000  1.000000  0.000000  0.000000  0.000000
                       0.000000
                       1.000000  1.000000  1.000000  0.000000  0.000000  0.000000
                       0.000000
                       1.000000  1.000000  1.000000  0.000000  0.000000  0.000000
                       0.000000
                       1.000000  1.000000  1.000000  0.000000  0.000000  0.000000
                       0.000000
                       1.000000  1.000000  1.000000  0.000000  0.000000  0.000000
                       0.000000
                       1.000000  1.000000  1.000000  0.000000  0.000000  0.000000
                       0.000000
                       1.000000  1.000000  1.000000  0.000000  0.000000  0.000000
                       0.000000
                       1.000000  1.000000  1.000000  0.000000  0.000000  0.000000
                       0.000000
                       1.000000  1.000000  1.000000  0.000000  0.000000  0.000000
                       0.000000
                       1.000000  1.000000  1.000000  0.000000  0.000000  0.000000
                       0.000000
                       1.000000  1.000000  1.000000  0.000000  0.000000  0.000000
                       0.000000
                       1.000000  1.000000  1.000000  0.000000  0.000000  0.000000
                       0.000000
                       1.000000  1.000000  1.000000  0.000000  0.000000  0.000000
                       0.000000
                       1.000000  1.000000  1.000000  0.000000  0.000000  0.000000
                       0.000000
                       1.000000  1.000000  1.000000  0.000000  0.000000  0.000000
                       0.000000
                       1.000000  1.000000  1.000000  0.000000  0.000000  0.000000
                       0.000000
                       1.000000  1.000000  1.000000  0.000000  0.000000  0.000000
                       0.000000
                       1.000000  1.000000  1.000000  0.000000  0.000000  0.000000
                       0.000000
                       1.000000  1.000000  1.000000  0.000000  0.000000  0.000000
                       0.000000
                       1.000000  1.000000  1.000000  0.000000  0.000000  0.000000
                       0.000000
                       1.000000  1.000000  1.000000  0.000000  0.000000  0.000000
                       0.000000
                       1.000000  1.000000  1.000000  0.000000  0.000000  0.000000
                       0.000000
                       1.000000  1.000000  1.000000  0.000000  0.000000  0.000000
                       0.000000
                       1.000000  1.000000  1.000000  0.000000  0.000000  0.000000
                       0.000000
                       1.000000  1.000000  1.000000  0.000000  0.000000  0.000000
                       0.000000
                       1.000000  1.000000  1.000000  0.000000  0.000000  0.000000
                       0.000000
                       1.000000  1.000000  1.000000  0.000000  0.000000  0.000000
                       0.000000
                       1.000000  1.000000  1.000000  0.000000  0.000000  0.000000
                       0.000000
                       1.000000  1.000000  1.000000  0.000000  0.000000  0.000000
                       0.000000
                       1.000000  1.000000  1.000000  0.000000  0.000000  0.000000
                       0.000000
                       1.000000  1.000000  1.000000  0.000000  0.000000  0.000000
                       0.000000
                       1.000000  1.000000  1.000000  0.000000  0.000000  0.000000
                       0.000000
                       1.000000  1.000000  1.000000  0.000000  0.000000  0.000000
                       0.000000
                       1.000000  1.000000  1.000000  0.000000  0.000000  0.000000
                       0.000000
                       1.000000  1.000000  1.000000  0.000000  0.000000  0.000000
                       0.000000
                       1.000000  1.000000  1.000000  0.000000  0.000000  0.000000
                       0.000000
                       1.000000  1.000000  1.000000  0.000000  0.000000  0.000000
                       0.000000
                       1.000000  1.000000  1.000000  0.000000  0.000000  0.000000
                       0.000000
                       1.000000  1.000000  1.000000  0.000000  0.000000  0.000000
                       0.000000
                       1.000000  1.000000  1.000000  0.000000  0.000000  0.000000
                       0.000000
                       1.000000  1.000000  1.000000  0.000000  0.000000  0.000000
                       0.000000
                       1.000000  1.000000  1.000000  0.000000  0.000000  0.000000
                       0.000000
                       1.000000  1.000000  1.000000  0.000000  0.000000  0.000000
                       0.000000
                       1.000000  1.000000  1.000000  0.000000  0.000000  0.000000
                       0.000000
           occopt           3
            rprim     -2.4069133907E+00  2.4069133907E+00  2.4069133907E+00
                       2.4069133907E+00 -2.4069133907E+00  2.4069133907E+00
                       2.4069133907E+00  2.4069133907E+00 -2.4069133907E+00
          spgroup         229
           spinat      0.0000000000E+00  0.0000000000E+00  6.0000000000E-01
           symrel      1  0  0   0  1  0   0  0  1      -1  0  0   0 -1  0   0  0 -1
                      -1 -1 -1   0  0  1   0  1  0       1  1  1   0  0 -1   0 -1  0
                       0  1  0   1  0  0  -1 -1 -1       0 -1  0  -1  0  0   1  1  1
                       0  0  1  -1 -1 -1   1  0  0       0  0 -1   1  1  1  -1  0  0
                       0  1  0   1  0  0   0  0  1       0 -1  0  -1  0  0   0  0 -1
                      -1 -1 -1   0  0  1   1  0  0       1  1  1   0  0 -1  -1  0  0
                       1  0  0   0  1  0  -1 -1 -1      -1  0  0   0 -1  0   1  1  1
                       0  0  1  -1 -1 -1   0  1  0       0  0 -1   1  1  1   0 -1  0
                      -1 -1 -1   1  0  0   0  0  1       1  1  1  -1  0  0   0  0 -1
                       0  1  0   0  0  1   1  0  0       0 -1  0   0  0 -1  -1  0  0
                       1  0  0  -1 -1 -1   0  1  0      -1  0  0   1  1  1   0 -1  0
                       0  0  1   0  1  0  -1 -1 -1       0  0 -1   0 -1  0   1  1  1
                       1  0  0  -1 -1 -1   0  0  1      -1  0  0   1  1  1   0  0 -1
                       0  1  0   0  0  1  -1 -1 -1       0 -1  0   0  0 -1   1  1  1
                      -1 -1 -1   1  0  0   0  1  0       1  1  1  -1  0  0   0 -1  0
                       0  0  1   0  1  0   1  0  0       0  0 -1   0 -1  0  -1  0  0
                       0  1  0  -1 -1 -1   0  0  1       0 -1  0   1  1  1   0  0 -1
                       1  0  0   0  0  1  -1 -1 -1      -1  0  0   0  0 -1   1  1  1
                      -1 -1 -1   0  1  0   1  0  0       1  1  1   0 -1  0  -1  0  0
                       0  0  1   1  0  0   0  1  0       0  0 -1  -1  0  0   0 -1  0
                      -1 -1 -1   0  1  0   0  0  1       1  1  1   0 -1  0   0  0 -1
                       1  0  0   0  0  1   0  1  0      -1  0  0   0  0 -1   0 -1  0
                       0  1  0  -1 -1 -1   1  0  0       0 -1  0   1  1  1  -1  0  0
                       0  0  1   1  0  0  -1 -1 -1       0  0 -1  -1  0  0   1  1  1
           tolvrs      1.00000000E-08
           tsmear      3.67493222E-03 Hartree
            typat      1
              wtk        0.00195    0.02344    0.02344    0.02344    0.01172    0.04688
                         0.09375    0.09375    0.04688    0.04688    0.01563    0.04688
                         0.02344    0.01172    0.04688    0.04688    0.04688    0.04688
                         0.02344    0.09375    0.01563    0.00391    0.01172    0.04688
                         0.02344    0.04688    0.01172    0.02344    0.00195
            znucl        8.00000

================================================================================

 chkinp: Checking input parameters for consistency.

================================================================================
== DATASET  1 ==================================================================
-   mpi_nproc: 10, omp_nthreads: -1 (-1 if OMP is not activated)


--- !DatasetInfo
iteration_state: {dtset: 1, }
dimensions: {natom: 1, nkpt: 29, mband: 7, nsppol: 2, nspinor: 1, nspden: 2, mpw: 638, }
cutoff_energies: {ecut:  38.0, pawecutdg:  -1.0, }
electrons: {nelect:   6.00000000E+00, charge:   0.00000000E+00, occopt:   3.00000000E+00, tsmear:   3.67493222E-03, }
meta: {optdriver: 0, ionmov: 0, optcell: 0, iscf: 7, paral_kgb: 0, }
...

 Exchange-correlation functional for the present dataset will be:
  GGA: Perdew-Burke-Ernzerhof functional - ixc=11
 Citation for XC functional:
  J.P.Perdew, K.Burke, M.Ernzerhof, PRL 77, 3865 (1996)

 Real(R)+Recip(G) space primitive vectors, cartesian coordinates (Bohr,Bohr^-1):
 R(1)= -2.4069134  2.4069134  2.4069134  G(1)=  0.0000000  0.2077349  0.2077349
 R(2)=  2.4069134 -2.4069134  2.4069134  G(2)=  0.2077349  0.0000000  0.2077349
 R(3)=  2.4069134  2.4069134 -2.4069134  G(3)=  0.2077349  0.2077349  0.0000000
 Unit cell volume ucvol=  5.5775231E+01 bohr^3
 Angles (23,13,12)=  1.09471221E+02  1.09471221E+02  1.09471221E+02 degrees

 getcut: wavevector=  0.0000  0.0000  0.0000  ngfft=  24  24  24
         ecut(hartree)=     38.000   => boxcut(ratio)=   2.07459

--- Pseudopotential description ------------------------------------------------
- pspini: atom type   1  psp file is /home/wjing/PycharmProjects/abinit_jobflow/statics/pseudos/O.psp8
- pspatm: opening atomic psp file    /home/wjing/PycharmProjects/abinit_jobflow/statics/pseudos/O.psp8
- O     ONCVPSP-4.0.1  r_core=   1.35246   1.45312   1.25127
-  8.00000   6.00000    240206                znucl, zion, pspdat
    8   11    2    4       600   0.00000      pspcod,pspxc,lmax,lloc,mmax,r2well
    5.99000000000000    4.00000000000000    0.00000000000000   rchrg,fchrg,qchrg
     nproj     2     2     1
     extension_switch     1
  pspatm : epsatm=    6.23707843
         --- l  ekb(1:nproj) -->
             0    5.937473    0.786295
             1   -4.689242   -1.104247
             2   -1.364786
 pspatm: atomic psp has been read  and splines computed

   3.74224706E+01                                ecore*ucvol(ha*bohr**3)
--------------------------------------------------------------------------------

_setup2: Arith. and geom. avg. npw (full set) are     624.330     624.314

================================================================================

--- !BeginCycle
iteration_state: {dtset: 1, }
solver: {iscf: 7, nstep: 30, nline: 4, wfoptalg: 0, }
tolerances: {tolvrs: 1.00E-08, }
...

     iter   Etot(hartree)     deltaE(h) residm    vres2    magn
 ETOT  1  -16.357661505884    -1.64E+01 9.04E-02 2.14E+00 0.437
 ETOT  2  -16.364571973637    -6.91E-03 1.05E-02 2.09E-01 0.339
 ETOT  3  -16.364736298938    -1.64E-04 1.04E-03 7.51E-02 0.281
 ETOT  4  -16.364814769680    -7.85E-05 5.07E-04 2.78E-02 0.248
 ETOT  5  -16.364945335419    -1.31E-04 1.20E-03 6.49E-03 0.158
 ETOT  6  -16.364998397719    -5.31E-05 4.92E-04 1.72E-03 0.078
 ETOT  7  -16.365003798449    -5.40E-06 7.30E-04 1.13E-03 0.063
 ETOT  8  -16.365013867896    -1.01E-05 2.47E-04 1.42E-05 0.001
 ETOT  9  -16.365013860088     7.81E-09 2.98E-04 6.75E-06 0.002
 ETOT 10  -16.365013871886    -1.18E-08 8.73E-05 2.05E-07 0.000
 ETOT 11  -16.365013872457    -5.71E-10 9.95E-05 1.21E-08 0.000
 ETOT 12  -16.365013872475    -1.79E-11 2.79E-05 2.88E-10 0.000

 At SCF step   12       vres2   =  2.88E-10 < tolvrs=  1.00E-08 =>converged.

 Cartesian components of stress tensor (hartree/bohr^3)
  sigma(1 1)=  3.26175221E-04  sigma(3 2)=  0.00000000E+00
  sigma(2 2)=  3.26175221E-04  sigma(3 1)=  0.00000000E+00
  sigma(3 3)=  3.26175221E-04  sigma(2 1)=  0.00000000E+00


--- !ResultsGS
iteration_state: {dtset: 1, }
comment   : Summary of ground state results
lattice_vectors:
- [ -2.4069134,   2.4069134,   2.4069134, ]
- [  2.4069134,  -2.4069134,   2.4069134, ]
- [  2.4069134,   2.4069134,  -2.4069134, ]
lattice_lengths: [   4.16890,    4.16890,    4.16890, ]
lattice_angles: [109.471, 109.471, 109.471, ] # degrees, (23, 13, 12)
lattice_volume:   5.5775231E+01
convergence: {deltae: -1.793E-11, res2:  2.881E-10, residm:  2.787E-05, diffor: null, }
etotal    :  -1.63650139E+01
entropy   :   0.00000000E+00
fermie    :   5.23313670E-02
cartesian_stress_tensor: # hartree/bohr^3
- [  3.26175221E-04,   0.00000000E+00,   0.00000000E+00, ]
- [  0.00000000E+00,   3.26175221E-04,   0.00000000E+00, ]
- [  0.00000000E+00,   0.00000000E+00,   3.26175221E-04, ]
pressure_GPa:  -9.5964E+00
xred      :
- [  0.0000E+00,   0.0000E+00,   0.0000E+00,  O]
cartesian_forces: # hartree/bohr
- [ -0.00000000E+00,  -0.00000000E+00,  -0.00000000E+00, ]
force_length_stats: {min:   0.00000000E+00, max:   0.00000000E+00, mean:   0.00000000E+00, }
...

 Integrated electronic and magnetization densities in atomic spheres:
 ---------------------------------------------------------------------
 Radius=ratsph(iatom), smearing ratsm=  0.0000. Diff(up-dn)=approximate z local magnetic moment.
 Atom    Radius    up_density   dn_density  Total(up+dn)  Diff(up-dn)
    1   2.00000     2.738352     2.738385      5.476736    -0.000033
 ---------------------------------------------------------------------
  Sum:              2.738352     2.738385      5.476736    -0.000033
 Total magnetization (from the atomic spheres):            -0.000033
 Total magnetization (exact up - dn):                      -0.000034
================================================================================

 ----iterations are completed or convergence reached----

 Mean square residual over all n,k,spin=   10.263E-08; max=  27.869E-06
 reduced coordinates (array xred) for    1 atoms
       0.000000000000      0.000000000000      0.000000000000
 rms dE/dt=  0.0000E+00; max dE/dt=  0.0000E+00; dE/dt below (all hartree)
    1       0.000000000000      0.000000000000      0.000000000000

 cartesian coordinates (angstrom) at end:
    1      0.00000000000000     0.00000000000000     0.00000000000000

 cartesian forces (hartree/bohr) at end:
    1     -0.00000000000000    -0.00000000000000    -0.00000000000000
 frms,max,avg= 0.0000000E+00 0.0000000E+00   0.000E+00  0.000E+00  0.000E+00 h/b

 cartesian forces (eV/Angstrom) at end:
    1     -0.00000000000000    -0.00000000000000    -0.00000000000000
 frms,max,avg= 0.0000000E+00 0.0000000E+00   0.000E+00  0.000E+00  0.000E+00 e/A
 length scales=  1.000000000000  1.000000000000  1.000000000000 bohr
              =  0.529177208590  0.529177208590  0.529177208590 angstroms
 prteigrs : about to open file outdata/out_EIG
 Fermi (or HOMO) energy (hartree) =   0.05233   Average Vxc (hartree)=  -0.43886
 Magnetization (Bohr magneton)=  3.37647147E-05
 Total spin up =  2.99998312E+00   Total spin down =  3.00001688E+00
 Eigenvalues (hartree) for nkpt=  29  k points, SPIN UP:
 kpt#   1, nband=  7, wtk=  0.00195, kpt=  0.0000  0.0000  0.0000 (reduced coord)
  -0.71318    0.11297    0.11297    0.11297    0.69964    1.35220    1.35220
      occupation numbers for kpt#   1
   1.00000    0.00000    0.00000    0.00000    0.00000    0.00000    0.00000
 prteigrs : prtvol=0 or 1, do not print more k-points.

 Eigenvalues (hartree) for nkpt=  29  k points, SPIN DOWN:
 kpt#   1, nband=  7, wtk=  0.00195, kpt=  0.0000  0.0000  0.0000 (reduced coord)
  -0.71318    0.11297    0.11297    0.11297    0.69964    1.35220    1.35220
      occupation numbers for kpt#   1
   1.00000    0.00000    0.00000    0.00000    0.00000    0.00000    0.00000
 prteigrs : prtvol=0 or 1, do not print more k-points.


--- !EnergyTerms
iteration_state     : {dtset: 1, }
comment             : Components of total free energy in Hartree
kinetic             :  1.03038634038132E+01
hartree             :  2.51344185779733E+00
xc                  : -3.95645190558154E+00
Ewald energy        : -1.36079267214742E+01
psp_core            :  6.70951418190388E-01
local_psp           : -1.01239469654304E+01
non_local_psp       : -2.16389076177348E+00
internal            : -1.63639596744587E+01
'-kT*entropy'       : -1.05419801599833E-03
total_energy        : -1.63650138724747E+01
total_energy_eV     : -4.45314674358133E+02
band_energy         : -1.33518440507358E+00
...


 Cartesian components of stress tensor (hartree/bohr^3)
  sigma(1 1)=  3.26175221E-04  sigma(3 2)=  0.00000000E+00
  sigma(2 2)=  3.26175221E-04  sigma(3 1)=  0.00000000E+00
  sigma(3 3)=  3.26175221E-04  sigma(2 1)=  0.00000000E+00

-Cartesian components of stress tensor (GPa)         [Pressure= -9.5964E+00 GPa]
- sigma(1 1)=  9.59640471E+00  sigma(3 2)=  0.00000000E+00
- sigma(2 2)=  9.59640471E+00  sigma(3 1)=  0.00000000E+00
- sigma(3 3)=  9.59640471E+00  sigma(2 1)=  0.00000000E+00

== END DATASET(S) ==============================================================
================================================================================
  
 -outvars: echo values of variables after computation  --------
            acell      1.0000000000E+00  1.0000000000E+00  1.0000000000E+00 Bohr
              amu      1.59994000E+01
             ecut      3.80000000E+01 Hartree
           etotal     -1.6365013872E+01
            fcart     -0.0000000000E+00 -0.0000000000E+00 -0.0000000000E+00
-          fftalg         312
           istwfk        2    0    0    0    3    0    0    0    0    0
                         0    0    0    0    0    0    0    0    0    0
                         0    0    0    0    0    0    0    0    9
              ixc          11
              kpt      0.00000000E+00  0.00000000E+00  0.00000000E+00
                       1.25000000E-01  0.00000000E+00  0.00000000E+00
                       2.50000000E-01  0.00000000E+00  0.00000000E+00
                       3.75000000E-01  0.00000000E+00  0.00000000E+00
                       5.00000000E-01  0.00000000E+00  0.00000000E+00
                       1.25000000E-01  1.25000000E-01  0.00000000E+00
                       2.50000000E-01  1.25000000E-01  0.00000000E+00
                       3.75000000E-01  1.25000000E-01  0.00000000E+00
                       2.50000000E-01  2.50000000E-01  0.00000000E+00
                       3.75000000E-01  2.50000000E-01  0.00000000E+00
                       1.25000000E-01  1.25000000E-01  1.25000000E-01
                       2.50000000E-01  1.25000000E-01  1.25000000E-01
                       3.75000000E-01  1.25000000E-01  1.25000000E-01
                      -1.25000000E-01  1.25000000E-01  1.25000000E-01
                       2.50000000E-01  2.50000000E-01  1.25000000E-01
                      -2.50000000E-01  2.50000000E-01  1.25000000E-01
                      -3.75000000E-01  3.75000000E-01  1.25000000E-01
                      -2.50000000E-01  3.75000000E-01  1.25000000E-01
                       5.00000000E-01  5.00000000E-01  1.25000000E-01
                      -3.75000000E-01  5.00000000E-01  1.25000000E-01
                      -3.75000000E-01 -3.75000000E-01  1.25000000E-01
                       2.50000000E-01  2.50000000E-01  2.50000000E-01
                      -2.50000000E-01  2.50000000E-01  2.50000000E-01
                      -3.75000000E-01  3.75000000E-01  2.50000000E-01
                       5.00000000E-01  5.00000000E-01  2.50000000E-01
                      -3.75000000E-01  5.00000000E-01  2.50000000E-01
                      -3.75000000E-01  3.75000000E-01  3.75000000E-01
                       5.00000000E-01  5.00000000E-01  3.75000000E-01
                       5.00000000E-01  5.00000000E-01  5.00000000E-01
         kptrlatt        8    0    0      0    8    0      0    0    8
          kptrlen      3.33511703E+01
P           mkmem           6
            natom           1
            nband           7
            ngfft          24      24      24
             nkpt          29
           nspden           2
           nsppol           2
             nsym          48
           ntypat           1
              occ      1.000000  0.000000  0.000000  0.000000  0.000000  0.000000
                       0.000000
                       1.000000  0.004868  0.000001  0.000000  0.000000  0.000000
                       0.000000
                       1.000000  1.000000  0.001389  0.000000  0.000000  0.000000
                       0.000000
                       1.000000  1.000000  0.436753  0.000001  0.000000  0.000000
                       0.000000
                       1.000000  1.000000  0.902700  0.000002  0.000000  0.000000
                       0.000000
                       1.000000  0.999993  0.000173  0.000002  0.000000  0.000000
                       0.000000
                       1.000000  1.000000  0.763503  0.000014  0.000000  0.000000
                       0.000000
                       1.000000  1.000000  0.999647  0.000052  0.000000  0.000000
                       0.000000
                       1.000000  1.000000  1.000000  0.000341  0.000000  0.000000
                       0.000000
                       1.000000  1.000000  1.000000  0.000909  0.000000  0.000000
                       0.000000
                       1.000000  1.000000  0.006398  0.006398  0.000000  0.000000
                       0.000000
                       1.000000  1.000000  0.999921  0.188674  0.000000  0.000000
                       0.000000
                       1.000000  1.000000  1.000000  0.503914  0.000000  0.000000
                       0.000000
                       1.000000  0.226738  0.000039  0.000039  0.000000  0.000000
                       0.000000
                       1.000000  1.000000  1.000000  0.998698  0.000000  0.000000
                       0.000000
                       1.000000  1.000000  0.059847  0.000470  0.000000  0.000000
                       0.000000
                       1.000000  1.000000  0.982156  0.001021  0.000000  0.000000
                       0.000000
                       1.000000  1.000000  0.999929  0.007587  0.000000  0.000000
                       0.000000
                       1.000000  1.000000  0.998708  0.001407  0.000000  0.000000
                       0.000000
                       1.000000  1.000000  1.000000  0.007859  0.000000  0.000000
                       0.000000
                       1.000000  1.000000  1.000000  0.004410  0.000000  0.000000
                       0.000000
                       1.000000  1.000000  1.000000  1.000000  0.000000  0.000000
                       0.000000
                       1.000000  1.000000  0.996750  0.996750  0.000000  0.000000
                       0.000000
                       1.000000  1.000000  0.999998  0.999805  0.000000  0.000000
                       0.000000
                       1.000000  1.000000  1.000000  0.999735  0.000000  0.000000
                       0.000000
                       1.000000  1.000000  1.000000  0.999754  0.000000  0.000000
                       0.000000
                       1.000000  1.000000  1.000000  1.000000  0.000000  0.000000
                       0.000000
                       1.000000  1.000000  1.000000  1.000000  0.000000  0.000000
                       0.000000
                       1.000000  1.000000  1.000000  1.000000  0.000000  0.000000
                       0.000000
                       1.000000  0.000000  0.000000  0.000000  0.000000  0.000000
                       0.000000
                       1.000000  0.004872  0.000001  0.000000  0.000000  0.000000
                       0.000000
                       1.000000  1.000000  0.001390  0.000000  0.000000  0.000000
                       0.000000
                       1.000000  1.000000  0.436945  0.000001  0.000000  0.000000
                       0.000000
                       1.000000  1.000000  0.902767  0.000002  0.000000  0.000000
                       0.000000
                       1.000000  0.999993  0.000174  0.000002  0.000000  0.000000
                       0.000000
                       1.000000  1.000000  0.763641  0.000014  0.000000  0.000000
                       0.000000
                       1.000000  1.000000  0.999647  0.000052  0.000000  0.000000
                       0.000000
                       1.000000  1.000000  1.000000  0.000342  0.000000  0.000000
                       0.000000
                       1.000000  1.000000  1.000000  0.000910  0.000000  0.000000
                       0.000000
                       1.000000  1.000000  0.006403  0.006403  0.000000  0.000000
                       0.000000
                       1.000000  1.000000  0.999921  0.188790  0.000000  0.000000
                       0.000000
                       1.000000  1.000000  1.000000  0.504101  0.000000  0.000000
                       0.000000
                       1.000000  0.226873  0.000039  0.000039  0.000000  0.000000
                       0.000000
                       1.000000  1.000000  1.000000  0.998699  0.000000  0.000000
                       0.000000
                       1.000000  1.000000  0.059891  0.000470  0.000000  0.000000
                       0.000000
                       1.000000  1.000000  0.982169  0.001022  0.000000  0.000000
                       0.000000
                       1.000000  1.000000  0.999929  0.007593  0.000000  0.000000
                       0.000000
                       1.000000  1.000000  0.998709  0.001408  0.000000  0.000000
                       0.000000
                       1.000000  1.000000  1.000000  0.007865  0.000000  0.000000
                       0.000000
                       1.000000  1.000000  1.000000  0.004414  0.000000  0.000000
                       0.000000
                       1.000000  1.000000  1.000000  1.000000  0.000000  0.000000
                       0.000000
                       1.000000  1.000000  0.996753  0.996753  0.000000  0.000000
                       0.000000
                       1.000000  1.000000  0.999998  0.999805  0.000000  0.000000
                       0.000000
                       1.000000  1.000000  1.000000  0.999735  0.000000  0.000000
                       0.000000
                       1.000000  1.000000  1.000000  0.999755  0.000000  0.000000
                       0.000000
                       1.000000  1.000000  1.000000  1.000000  0.000000  0.000000
                       0.000000
                       1.000000  1.000000  1.000000  1.000000  0.000000  0.000000
                       0.000000
                       1.000000  1.000000  1.000000  1.000000  0.000000  0.000000
                       0.000000
           occopt           3
            rprim     -2.4069133907E+00  2.4069133907E+00  2.4069133907E+00
                       2.4069133907E+00 -2.4069133907E+00  2.4069133907E+00
                       2.4069133907E+00  2.4069133907E+00 -2.4069133907E+00
          spgroup         229
           spinat      0.0000000000E+00  0.0000000000E+00  6.0000000000E-01
           strten      3.2617522130E-04  3.2617522130E-04  3.2617522130E-04
                       0.0000000000E+00  0.0000000000E+00  0.0000000000E+00
           symrel      1  0  0   0  1  0   0  0  1      -1  0  0   0 -1  0   0  0 -1
                      -1 -1 -1   0  0  1   0  1  0       1  1  1   0  0 -1   0 -1  0
                       0  1  0   1  0  0  -1 -1 -1       0 -1  0  -1  0  0   1  1  1
                       0  0  1  -1 -1 -1   1  0  0       0  0 -1   1  1  1  -1  0  0
                       0  1  0   1  0  0   0  0  1       0 -1  0  -1  0  0   0  0 -1
                      -1 -1 -1   0  0  1   1  0  0       1  1  1   0  0 -1  -1  0  0
                       1  0  0   0  1  0  -1 -1 -1      -1  0  0   0 -1  0   1  1  1
                       0  0  1  -1 -1 -1   0  1  0       0  0 -1   1  1  1   0 -1  0
                      -1 -1 -1   1  0  0   0  0  1       1  1  1  -1  0  0   0  0 -1
                       0  1  0   0  0  1   1  0  0       0 -1  0   0  0 -1  -1  0  0
                       1  0  0  -1 -1 -1   0  1  0      -1  0  0   1  1  1   0 -1  0
                       0  0  1   0  1  0  -1 -1 -1       0  0 -1   0 -1  0   1  1  1
                       1  0  0  -1 -1 -1   0  0  1      -1  0  0   1  1  1   0  0 -1
                       0  1  0   0  0  1  -1 -1 -1       0 -1  0   0  0 -1   1  1  1
                      -1 -1 -1   1  0  0   0  1  0       1  1  1  -1  0  0   0 -1  0
                       0  0  1   0  1  0   1  0  0       0  0 -1   0 -1  0  -1  0  0
                       0  1  0  -1 -1 -1   0  0  1       0 -1  0   1  1  1   0  0 -1
                       1  0  0   0  0  1  -1 -1 -1      -1  0  0   0  0 -1   1  1  1
                      -1 -1 -1   0  1  0   1  0  0       1  1  1   0 -1  0  -1  0  0
                       0  0  1   1  0  0   0  1  0       0  0 -1  -1  0  0   0 -1  0
                      -1 -1 -1   0  1  0   0  0  1       1  1  1   0 -1  0   0  0 -1
                       1  0  0   0  0  1   0  1  0      -1  0  0   0  0 -1   0 -1  0
                       0  1  0  -1 -1 -1   1  0  0       0 -1  0   1  1  1  -1  0  0
                       0  0  1   1  0  0  -1 -1 -1       0  0 -1  -1  0  0   1  1  1
           tolvrs      1.00000000E-08
           tsmear      3.67493222E-03 Hartree
            typat      1
              wtk        0.00195    0.02344    0.02344    0.02344    0.01172    0.04688
                         0.09375    0.09375    0.04688    0.04688    0.01563    0.04688
                         0.02344    0.01172    0.04688    0.04688    0.04688    0.04688
                         0.02344    0.09375    0.01563    0.00391    0.01172    0.04688
                         0.02344    0.04688    0.01172    0.02344    0.00195
            znucl        8.00000

================================================================================


- Timing analysis has been suppressed with timopt=0



================================================================================

 Suggested references for the acknowledgment of ABINIT usage.

 The users of ABINIT have little formal obligations with respect to the ABINIT group
 (those specified in the GNU General Public License, http://www.gnu.org/copyleft/gpl.txt).
 However, it is common practice in the scientific literature,
 to acknowledge the efforts of people that have made the research possible.
 In this spirit, please find below suggested citations of work written by ABINIT developers,
 corresponding to implementations inside of ABINIT that you have used in the present run.
 Note also that it will be of great value to readers of publications presenting these results,
 to read papers enabling them to understand the theoretical formalism and details
 of the ABINIT implementation.
 For information on why they are suggested, see also https://docs.abinit.org/theory/acknowledgments.
-
- [1] The Abinit project: Impact, environment and recent developments.
- Computer Phys. Comm. 248, 107042 (2020).
- X.Gonze, B. Amadon, G. Antonius, F.Arnardi, L.Baguet, J.-M.Beuken,
- J.Bieder, F.Bottin, J.Bouchet, E.Bousquet, N.Brouwer, F.Bruneval,
- G.Brunin, T.Cavignac, J.-B. Charraud, Wei Chen, M.Cote, S.Cottenier,
- J.Denier, G.Geneste, Ph.Ghosez, M.Giantomassi, Y.Gillet, O.Gingras,
- D.R.Hamann, G.Hautier, Xu He, N.Helbig, N.Holzwarth, Y.Jia, F.Jollet,
- W.Lafargue-Dit-Hauret, K.Lejaeghere, M.A.L.Marques, A.Martin, C.Martins,
- H.P.C. Miranda, F.Naccarato, K. Persson, G.Petretto, V.Planes, Y.Pouillon,
- S.Prokhorenko, F.Ricci, G.-M.Rignanese, A.H.Romero, M.M.Schmitt, M.Torrent,
- M.J.van Setten, B.Van Troeye, M.J.Verstraete, G.Zerah and J.W.Zwanzig
- Comment: the fifth generic paper describing the ABINIT project.
- Note that a version of this paper, that is not formatted for Computer Phys. Comm. 
- is available at https://www.abinit.org/sites/default/files/ABINIT20.pdf .
- The licence allows the authors to put it on the Web.
- DOI and bibtex: see https://docs.abinit.org/theory/bibliography/#gonze2020
-
- [2] Optimized norm-conserving Vanderbilt pseudopotentials.
- D.R. Hamann, Phys. Rev. B 88, 085117 (2013).
- Comment: Some pseudopotential generated using the ONCVPSP code were used.
- DOI and bibtex: see https://docs.abinit.org/theory/bibliography/#hamann2013
-
- [3] ABINIT: Overview, and focus on selected capabilities
- J. Chem. Phys. 152, 124102 (2020).
- A. Romero, D.C. Allan, B. Amadon, G. Antonius, T. Applencourt, L.Baguet,
- J.Bieder, F.Bottin, J.Bouchet, E.Bousquet, F.Bruneval,
- G.Brunin, D.Caliste, M.Cote,
- J.Denier, C. Dreyer, Ph.Ghosez, M.Giantomassi, Y.Gillet, O.Gingras,
- D.R.Hamann, G.Hautier, F.Jollet, G. Jomard,
- A.Martin, 
- H.P.C. Miranda, F.Naccarato, G.Petretto, N.A. Pike, V.Planes,
- S.Prokhorenko, T. Rangel, F.Ricci, G.-M.Rignanese, M.Royo, M.Stengel, M.Torrent,
- M.J.van Setten, B.Van Troeye, M.J.Verstraete, J.Wiktor, J.W.Zwanziger, and X.Gonze.
- Comment: a global overview of ABINIT, with focus on selected capabilities .
- Note that a version of this paper, that is not formatted for J. Chem. Phys 
- is available at https://www.abinit.org/sites/default/files/ABINIT20_JPC.pdf .
- The licence allows the authors to put it on the Web.
- DOI and bibtex: see https://docs.abinit.org/theory/bibliography/#romero2020
-
- [4] Recent developments in the ABINIT software package.
- Computer Phys. Comm. 205, 106 (2016).
- X.Gonze, F.Jollet, F.Abreu Araujo, D.Adams, B.Amadon, T.Applencourt,
- C.Audouze, J.-M.Beuken, J.Bieder, A.Bokhanchuk, E.Bousquet, F.Bruneval
- D.Caliste, M.Cote, F.Dahm, F.Da Pieve, M.Delaveau, M.Di Gennaro,
- B.Dorado, C.Espejo, G.Geneste, L.Genovese, A.Gerossier, M.Giantomassi,
- Y.Gillet, D.R.Hamann, L.He, G.Jomard, J.Laflamme Janssen, S.Le Roux,
- A.Levitt, A.Lherbier, F.Liu, I.Lukacevic, A.Martin, C.Martins,
- M.J.T.Oliveira, S.Ponce, Y.Pouillon, T.Rangel, G.-M.Rignanese,
- A.H.Romero, B.Rousseau, O.Rubel, A.A.Shukri, M.Stankovski, M.Torrent,
- M.J.Van Setten, B.Van Troeye, M.J.Verstraete, D.Waroquier, J.Wiktor,
- B.Xu, A.Zhou, J.W.Zwanziger.
- Comment: the fourth generic paper describing the ABINIT project.
- Note that a version of this paper, that is not formatted for Computer Phys. Comm. 
- is available at https://www.abinit.org/sites/default/files/ABINIT16.pdf .
- The licence allows the authors to put it on the Web.
- DOI and bibtex: see https://docs.abinit.org/theory/bibliography/#gonze2016
-
- And optionally:
-
- [5] ABINIT: First-principles approach of materials and nanosystem properties.
- Computer Phys. Comm. 180, 2582-2615 (2009).
- X. Gonze, B. Amadon, P.-M. Anglade, J.-M. Beuken, F. Bottin, P. Boulanger, F. Bruneval,
- D. Caliste, R. Caracas, M. Cote, T. Deutsch, L. Genovese, Ph. Ghosez, M. Giantomassi
- S. Goedecker, D.R. Hamann, P. Hermet, F. Jollet, G. Jomard, S. Leroux, M. Mancini, S. Mazevet,
- M.J.T. Oliveira, G. Onida, Y. Pouillon, T. Rangel, G.-M. Rignanese, D. Sangalli, R. Shaltaf,
- M. Torrent, M.J. Verstraete, G. Zerah, J.W. Zwanziger
- Comment: the third generic paper describing the ABINIT project.
- Note that a version of this paper, that is not formatted for Computer Phys. Comm. 
- is available at https://www.abinit.org/sites/default/files/ABINIT_CPC_v10.pdf .
- The licence allows the authors to put it on the Web.
- DOI and bibtex: see https://docs.abinit.org/theory/bibliography/#gonze2009
-
- Proc.   0 individual time (sec): cpu=          2.3  wall=          2.4

================================================================================

 Calculation completed.
.Delivered   0 WARNINGs and   0 COMMENTs to log file.
+Overall time at end (sec) : cpu=         23.3  wall=         23.4
